72
Lattice="15.06 0.0 0.0 7.53 13.042343 0.0 0.0 0.0 12.0" Properties=species:S:1:pos:R:3:forces:R:3 pbe340=-22.62014292689132 energy=-615.52544111 stress="-0.0028822789822598813 0.0 -0.0 0.0 -0.0028822789822598813 0.0 -0.0 0.0 0.025579246050623682" magmom=1.9999696 pbc="T T T"
B       1.25500000       0.72457000       6.00000000      -0.00000000      -0.00000000      -0.00000000 
B       2.50070000       2.88881000       6.00000000      -0.00048100       0.00671100      -0.00000000 
B       3.69726000       5.06571000       6.00000000       0.00080600       0.00173700      -0.00000000 
B       4.96655000       7.27660000       6.00000000       0.00650900      -0.00375800      -0.00000000 
B       6.24659000       9.48129000       6.00000000      -0.00110100      -0.00156600      -0.00000000 
B       7.53357000      11.60599000       6.00000000      -0.00605300      -0.00293900      -0.00000000 
B       3.75213000       0.72127000       6.00000000       0.00557200      -0.00377300      -0.00000000 
B       4.99712000       2.88509000       6.00000000      -0.00136200      -0.00078600      -0.00000000 
B       6.12146000       5.08172000       6.00000000       0.00241700      -0.00019600      -0.00000000 
B       7.44483000       7.37387000       6.00000000       0.00137900      -0.00199500      -0.00000000 
B       8.78500000       9.44589000       6.00000000      -0.00000000       0.00157200      -0.00000000 
B      10.03643000      11.60599000       6.00000000       0.00605300      -0.00293900      -0.00000000 
B       6.23567000       0.66906000       6.00000000       0.00190700      -0.00017000      -0.00000000 
B       7.46163000       2.76048000       6.00000000       0.00103900       0.00219200      -0.00000000 
B      10.12517000       7.37387000       6.00000000      -0.00137900      -0.00199500      -0.00000000 
B      11.32341000       9.48129000       6.00000000       0.00110100      -0.00156600       0.00000000 
B      12.54386000      11.59674000       6.00000000       0.00002600      -0.00001500      -0.00000000 
B       8.78500000       0.66286000       6.00000000       0.00000000       0.00751500      -0.00000000 
B      10.10837000       2.76048000       6.00000000      -0.00103900       0.00219200      -0.00000000 
B      11.44854000       5.08172000       6.00000000      -0.00241700      -0.00019600      -0.00000000 
B      12.60345000       7.27660000       6.00000000      -0.00650900      -0.00375800      -0.00000000 
B      13.81865000       9.43197000       6.00000000      -0.00902000       0.00627400      -0.00000000 
B      15.05600000      11.57512000       6.00000000      -0.00994300       0.00467500      -0.00000000 
B      11.33433000       0.66906000       6.00000000      -0.00190700      -0.00017000      -0.00000000 
B      12.57288000       2.88509000       6.00000000       0.00136200      -0.00078600      -0.00000000 
B      13.87274000       5.06571000       6.00000000      -0.00080600       0.00173700      -0.00000000 
B      15.07766000       7.25132000       6.00000000       0.00092300      -0.01094900      -0.00000000 
B      16.31500000       9.41947000       6.00000000      -0.00000000      -0.00000000      -0.00000000 
B      17.57400000      11.57512000       6.00000000       0.00994300       0.00467500      -0.00000000 
B      13.81787000       0.72127000       6.00000000      -0.00557200      -0.00377300      -0.00000000 
B      15.06930000       2.88881000       6.00000000       0.00048100       0.00671100      -0.00000000 
B      16.31500000       5.06493000       6.00000000      -0.00000000       0.00003000      -0.00000000 
B      17.55234000       7.25132000       6.00000000      -0.00092300      -0.01094900      -0.00000000 
B      18.81135000       9.43197000       6.00000000       0.00902000       0.00627400      -0.00000000 
B      20.08614000      11.59674000       6.00000000      -0.00002600      -0.00001500      -0.00000000 
N       2.50347000       1.44538000       6.00000000      -0.00045300      -0.00026200      -0.00000000 
N       3.74453000       3.61543000       6.00000000      -0.00197800       0.00878500      -0.00000000 
N       4.89925000       5.81940000       6.00000000      -0.00169900       0.00390200      -0.00000000 
N       6.19488000       8.06350000       6.00000000      -0.00422800      -0.00048000      -0.00000000 
N       7.52621000      10.16550000       6.00000000      -0.00859800      -0.00268000      -0.00000000 
N       8.78500000      12.32530000       6.00000000      -0.00000000       0.00052400      -0.00000000 
N       5.00332000       1.43514000       6.00000000       0.00661900      -0.00610600      -0.00000000 
N       6.25161000       3.60937000       6.00000000      -0.00041700      -0.00024100      -0.00000000 
N       7.15846000       6.01110000       6.00000000       0.00409400      -0.00236400      -0.00000000 
N       8.78500000       7.99733000       6.00000000      -0.00000000       0.00048200      -0.00000000 
N      10.04379000      10.16550000       6.00000000       0.00859800      -0.00268000      -0.00000000 
N      11.29011000      12.32059000       6.00000000       0.00760800      -0.00439300      -0.00000000 
N       7.48937000       1.33317000       6.00000000       0.00253000      -0.00342200      -0.00000000 
N       8.78500000       3.19386000       6.00000000       0.00000000       0.00472800      -0.00000000 
N      10.41154000       6.01110000       6.00000000      -0.00409400      -0.00236400      -0.00000000 
N      11.37512000       8.06350000       6.00000000       0.00422800      -0.00048000      -0.00000000 
N      12.57230000      10.16938000       6.00000000       0.00418900      -0.00142100      -0.00000000 
N      13.79421000      12.28578000       6.00000000       0.00332500      -0.00291800      -0.00000000 
N      10.08063000       1.33317000       6.00000000      -0.00253000      -0.00342200      -0.00000000 
N      11.31839000       3.60937000       6.00000000       0.00041700      -0.00024100      -0.00000000 
N      12.67075000       5.81940000       6.00000000       0.00169900       0.00390200      -0.00000000 
N      13.84088000       7.99103000       6.00000000       0.00365500       0.00211000      -0.00000000 
N      15.06681000      10.14011000       6.00000000       0.00131900      -0.00076200      -0.00000000 
N      16.31500000      12.27634000       6.00000000      -0.00000000      -0.00422000       0.00000000 
N      12.56668000       1.43514000       6.00000000      -0.00661900      -0.00610600      -0.00000000 
N      13.82547000       3.61543000       6.00000000       0.00197800       0.00878500      -0.00000000 
N      15.09310000       5.80324000       6.00000000       0.00086400       0.00433800      -0.00000000 
N      16.31500000       7.97819000       6.00000000       0.00000000       0.00152300      -0.00000000 
N      17.56319000      10.14011000       6.00000000      -0.00131900      -0.00076200      -0.00000000 
N      18.83579000      12.28578000       6.00000000      -0.00332500      -0.00291800      -0.00000000 
N      15.06653000       1.44538000       6.00000000       0.00045300      -0.00026200      -0.00000000 
N      16.31500000       3.61723000       6.00000000       0.00000000       0.00878600      -0.00000000 
N      17.53690000       5.80324000       6.00000000      -0.00086400       0.00433800      -0.00000000 
N      18.78912000       7.99103000       6.00000000      -0.00365500       0.00211000      -0.00000000 
N      20.05770000      10.16938000       6.00000000      -0.00418900      -0.00142100      -0.00000000 
N      21.33989000      12.32059000       6.00000000      -0.00760800      -0.00439300      -0.00000000 
Au       8.78500000       5.07202000       6.00000000      -0.00000000      -0.00000000      -0.00000000 
