32
Lattice="10.04 0.0 0.0 5.02 8.694895 0.0 0.0 0.0 12.0" Properties=species:S:1:pos:R:3:forces:R:3 pbe340=-9.695946207361011 energy=-263.84013512 stress="-0.03156149537043601 0.0 -0.0 0.0 -0.03156149537043601 -0.0 -0.0 -0.0 0.02579703102855313" magmom=-1.9996522 pbc="T T T"
B       1.25500000       0.73627000       6.00000000       0.00000000       0.00517600      -0.00000000 
B       2.49987000       2.89245000       6.00000000      -0.00448300      -0.00258800       0.00000000 
B       3.64091000       5.07431000       6.00000000       0.01224100      -0.00591400      -0.00000000 
B       4.95598000       7.35207000       6.00000000       0.01124200      -0.00764400      -0.00000000 
B       3.75392000       0.73097000       6.00000000      -0.00282500       0.00163100      -0.00000000 
B       4.95993000       2.78969000       6.00000000       0.00099900       0.01355800       0.00000000 
B       7.59402000       7.35207000       6.00000000      -0.01124200      -0.00764400       0.00000000 
B       6.27500000       0.69982000       6.00000000       0.00000000       0.00311200      -0.00000000 
B       7.59007000       2.78969000       6.00000000      -0.00099900       0.01355800      -0.00000000 
B       8.90909000       5.07431000       6.00000000      -0.01224100      -0.00591400       0.00000000 
B      10.06144000       7.25812000       6.00000000      -0.00269500      -0.00155600      -0.00000000 
B       8.79608000       0.73097000       6.00000000       0.00282500       0.00163100      -0.00000000 
B      10.05013000       2.89245000       6.00000000       0.00448300      -0.00258800      -0.00000000 
B      11.29500000       5.05923000       6.00000000      -0.00000000      -0.00326200      -0.00000000 
B      12.52856000       7.25812000       6.00000000       0.00269500      -0.00155600      -0.00000000 
N       2.50353000       1.45288000       6.00000000       0.00369300      -0.00213200      -0.00000000 
N       3.75102000       3.61480000       6.00000000       0.00772400       0.00445900       0.00000000 
N       4.66562000       6.00120000       6.00000000      -0.01106000       0.00638600      -0.00000000 
N       6.27500000       7.98647000       6.00000000       0.00000000      -0.00891900      -0.00000000 
N       4.99687000       1.37852000       6.00000000       0.00372600      -0.00823900      -0.00000000 
N       6.27500000       3.21367000       6.00000000       0.00000000      -0.01277100       0.00000000 
N       7.88438000       6.00120000       6.00000000       0.01106000       0.00638600       0.00000000 
N       8.83460000       8.02567000       6.00000000       0.00899800       0.00089200       0.00000000 
N       7.55313000       1.37852000       6.00000000      -0.00372600      -0.00823900       0.00000000 
N       8.79898000       3.61480000       6.00000000      -0.00772400       0.00445900      -0.00000000 
N      10.11273000       5.81188000       6.00000000       0.00527200       0.00734700      -0.00000000 
N      11.29500000       7.97032000       6.00000000       0.00000000       0.00000000      -0.00000000 
N      10.04647000       1.45288000       6.00000000      -0.00369300      -0.00213200       0.00000000 
N      11.29500000       3.61540000       6.00000000      -0.00000000       0.00426400      -0.00000000 
N      12.47727000       5.81188000       6.00000000      -0.00527200       0.00734700      -0.00000000 
N      13.75540000       8.02567000       6.00000000      -0.00899800       0.00089200      -0.00000000 
Au       6.27500000       5.07202000       6.00000000       0.00000000       0.00000000      -0.00000000 
