18
Lattice="7.53 0.0 0.0 3.765 6.521171 0.0 0.0 0.0 12.0" Properties=species:S:1:pos:R:3:forces:R:3 pbe340=-5.150637929449575 energy=-140.15599697 stress="-0.07322615277048487 -0.0 -0.0 -0.0 -0.07322614652897574 0.0 -0.0 0.0 0.026108569715062466" magmom=-0.0049302 pbc="T T T"
B       1.25500000       0.72457000       6.00000000       0.00000000       0.00000000      -0.00000000 
B       2.42963000       2.88804000       6.00000000       0.00829200       0.00339000      -0.00000000 
B       3.73370000       5.14676000       6.00000000       0.00121000      -0.00887600       0.00000000 
B       3.71593000       0.66010000       6.00000000       0.00708200       0.00548600      -0.00000000 
B       6.30630000       5.14676000       6.00000000      -0.00121000      -0.00887600      -0.00000000 
B       6.32407000       0.66010000       6.00000000      -0.00708200       0.00548600       0.00000000 
B       7.61037000       2.88804000       6.00000000      -0.00829200       0.00339000      -0.00000000 
B       8.78500000       5.07202000       6.00000000       0.00000000       0.00000000      -0.00000000 
N       2.50035000       1.44358000       6.00000000      -0.00088600      -0.00051200      -0.00000000 
N       3.42944000       3.81661000       6.00000000      -0.01189300       0.00686600      -0.00000000 
N       5.02000000       5.80773000       6.00000000       0.00000000       0.00102300       0.00000000 
N       5.02000000       1.06168000       6.00000000      -0.00000000      -0.01373200      -0.00000000 
N       6.61056000       3.81661000       6.00000000       0.01189300       0.00686600      -0.00000000 
N       7.54348000       5.78881000       6.00000000       0.00173300      -0.00100100       0.00000000 
N       7.53965000       1.44358000       6.00000000       0.00088600      -0.00051200      -0.00000000 
N       8.78500000       3.63844000       6.00000000       0.00000000       0.00200200       0.00000000 
N      10.02652000       5.78881000       6.00000000      -0.00173300      -0.00100100      -0.00000000 
Au       5.02000000       2.89830000       6.00000000       0.00000000       0.00000000      -0.00000000 
