32
Lattice="10.04 0.0 0.0 5.02 8.694895 0.0 0.0 0.0 12.0" Properties=species:S:1:pos:R:3:forces:R:3 pbe340=-10.257599496403841 energy=-279.12349958 stress="0.024014056565616816 -0.0 -0.0 -0.0 0.024014056565616816 0.0 -0.0 0.0 0.026176633372080226" magmom=1.0000015 pbc="T T T"
B       1.25500000       0.72375000       6.00000000       0.00000000       0.00660000      -0.00000000 
B       2.51071000       2.89871000       6.00000000      -0.00571600      -0.00330000      -0.00000000 
B       3.77707000       5.06905000       6.00000000      -0.00348200       0.00161800      -0.00000000 
B       5.02861000       7.23678000       6.00000000      -0.00314200       0.00220700      -0.00000000 
B       3.76589000       0.72406000       6.00000000      -0.00617300       0.00356400      -0.00000000 
B       5.02346000       2.91023000       6.00000000      -0.00034000      -0.00382400      -0.00000000 
B       7.52139000       7.23678000       6.00000000       0.00314200       0.00220700       0.00000000 
B       6.27500000       0.72531000       6.00000000       0.00000000      -0.01022000      -0.00000000 
B       7.52654000       2.91023000       6.00000000       0.00034000      -0.00382400      -0.00000000 
B       8.77293000       5.06905000       6.00000000       0.00348200       0.00161800      -0.00000000 
B      10.03936000       7.24538000       6.00000000       0.00885100       0.00511000      -0.00000000 
B       8.78411000       0.72406000       6.00000000       0.00617300       0.00356400      -0.00000000 
B      10.03929000       2.89871000       6.00000000       0.00571600      -0.00330000      -0.00000000 
B      11.29500000       5.07305000       6.00000000       0.00000000      -0.00712800      -0.00000000 
B      12.55064000       7.24538000       6.00000000      -0.00885100       0.00511000      -0.00000000 
C       6.27500000       5.07202000       6.00000000       0.00000000      -0.00000000      -0.00000000 
N       2.51120000       1.44845000       6.00000000      -0.00030000       0.00017300      -0.00000000 
N       3.76434000       3.62249000       6.00000000       0.00270700       0.00156300      -0.00000000 
N       5.05331000       5.77737000       6.00000000      -0.00075300       0.00043500       0.00000000 
N       6.27500000       7.97108000       6.00000000       0.00000000      -0.00312500      -0.00000000 
N       5.02516000       1.45672000       6.00000000       0.00170800      -0.00411600      -0.00000000 
N       6.27500000       3.66133000       6.00000000       0.00000000      -0.00087000       0.00000000 
N       7.49669000       5.77737000       6.00000000       0.00075300       0.00043500      -0.00000000 
N       8.78102000       7.96207000       6.00000000       0.00441900       0.00057900       0.00000000 
N       7.52484000       1.45672000       6.00000000      -0.00170800      -0.00411600      -0.00000000 
N       8.78566000       3.62249000       6.00000000      -0.00270700       0.00156300      -0.00000000 
N      10.03086000       5.79728000       6.00000000       0.00271100       0.00353700      -0.00000000 
N      11.29500000       7.97032000       6.00000000       0.00000000      -0.00000000      -0.00000000 
N      10.03880000       1.44845000       6.00000000       0.00030000       0.00017300      -0.00000000 
N      11.29500000       3.62426000       6.00000000       0.00000000      -0.00034700      -0.00000000 
N      12.55914000       5.79728000       6.00000000      -0.00271100       0.00353700      -0.00000000 
N      13.80898000       7.96207000       6.00000000      -0.00441900       0.00057900      -0.00000000 
