98
Lattice="17.57 0.0 0.0 8.785 15.216066 0.0 0.0 0.0 12.0" Properties=species:S:1:pos:R:3:forces:R:3 pbe340=-30.98127590763189 energy=-843.04345825 stress="0.00651336429737023 0.0037304563819035353 -0.0 0.0037304563819035353 0.0022058054986692764 -0.0 -0.0 -0.0 0.025843311818721553" magmom=1.0000004 pbc="T T T"
B       1.27144000       0.73407000       6.00000000       0.00637900       0.00368300       0.00000000 
B       2.50798000       2.90030000       6.00000000       0.00483500       0.00641900       0.00000000 
B       3.76457000       5.05654000       6.00000000       0.00831100      -0.00013900       0.00000000 
B       5.02048000       7.20191000       6.00000000      -0.00524300      -0.00372600       0.00000000 
B       6.30686000       9.32159000       6.00000000       0.00491500      -0.00147500       0.00000000 
B       7.65819000      11.38387000       6.00000000       0.00557700      -0.00399000       0.00000000 
B       8.86798000      13.75577000       6.00000000       0.01120100      -0.00328700       0.00000000 
B       3.76572000       0.72182000       6.00000000       0.00797600       0.00097800       0.00000000 
B       5.00377000       2.88892000       6.00000000       0.00066700       0.00038500       0.00000000 
B       6.27586000       5.04190000       6.00000000       0.00498500       0.00385600       0.00000000 
B       7.56002000       7.20169000       6.00000000       0.00125500      -0.00869300       0.00000000 
B       8.86200000       9.32258000       6.00000000       0.00375600      -0.00494200       0.00000000 
B      10.08185000      11.56759000       6.00000000      -0.00746400       0.00609000       0.00000000 
B      11.33728000      13.75741000       6.00000000       0.01006200       0.00058700       0.00000000 
B       6.26138000       0.73195000       6.00000000       0.00403500       0.00726700       0.00000000 
B       7.50434000       2.91411000       6.00000000       0.00583100       0.00238900       0.00000000 
B      10.05539000       7.21530000       6.00000000      -0.00634000      -0.00780800       0.00000000 
B      11.32549000       9.40049000       6.00000000      -0.00011200       0.00442700       0.00000000 
B      12.57447000      11.58413000       6.00000000       0.00327400      -0.00337900       0.00000000 
B      13.81423000      13.76542000       6.00000000       0.00202600      -0.00069500       0.00000000 
B       8.74727000       0.74691000       6.00000000      -0.00584900      -0.00267800       0.00000000 
B      10.01686000       2.94632000       6.00000000      -0.00690100       0.00543300       0.00000000 
B      11.27633000       5.10058000       6.00000000      -0.00993200      -0.00158700       0.00000000 
B      13.82625000       9.42242000       6.00000000       0.00058800       0.00244700       0.00000000 
B      15.07474000      11.59550000       6.00000000      -0.00186400      -0.00278000       0.00000000 
B      16.29338000      13.77306000       6.00000000       0.00211500       0.00315400       0.00000000 
B      11.22617000       0.80110000       6.00000000       0.00118000       0.00499400       0.00000000 
B      12.50459000       3.01343000       6.00000000      -0.00240200       0.00572400       0.00000000 
B      13.80381000       5.10793000       6.00000000       0.00377800      -0.00231100       0.00000000 
B      15.07318000       7.26267000       6.00000000       0.00241300      -0.00071400       0.00000000 
B      16.33153000       9.42902000       6.00000000      -0.00190200      -0.00109800       0.00000000 
B      17.58174000      11.60150000       6.00000000      -0.00087100      -0.00601500       0.00000000 
B      18.75927000      13.78689000       6.00000000      -0.00907500      -0.00242200       0.00000000 
B      13.68781000       0.94025000       6.00000000      -0.00066700       0.00682500       0.00000000 
B      15.05874000       2.94735000       6.00000000       0.00154200      -0.00950900       0.00000000 
B      16.31939000       5.09774000       6.00000000      -0.00128900       0.00452500       0.00000000 
B      17.57937000       7.25736000       6.00000000      -0.00334000      -0.00022400       0.00000000 
B      18.83806000       9.42548000       6.00000000      -0.00564500       0.00225300       0.00000000 
B      20.10192000      11.60585000       6.00000000      -0.00778200      -0.00449300       0.00000000 
B      21.20880000      13.85935000       6.00000000      -0.00535500       0.00306700       0.00000000 
B      16.34683000       0.80201000       6.00000000       0.00275400       0.01134400       0.00000000 
B      17.58290000       2.93966000       6.00000000       0.00553900       0.00842100       0.00000000 
B      18.82831000       5.08077000       6.00000000       0.00041100       0.00210200       0.00000000 
B      20.07451000       7.22395000       6.00000000       0.00378900       0.00025400       0.00000000 
B      21.31944000       9.35256000       6.00000000      -0.00663500      -0.00664800       0.00000000 
B      22.60696000      11.43768000       6.00000000      -0.00002100      -0.00617100       0.00000000 
B      12.56507000       7.25445000       6.00000000       0.00630700       0.00364200       0.00000000 
C       8.77859000       5.06832000       6.00000000      -0.00736100      -0.00425000       0.00000000 
N       2.52447000       1.45750000       6.00000000       0.00368300       0.00212700       0.00000000 
N       3.76516000       3.61756000       6.00000000       0.00439300       0.00031800       0.00000000 
N       5.03536000       5.76265000       6.00000000       0.00400200      -0.00286400       0.00000000 
N       6.29720000       7.87730000       6.00000000       0.00089100      -0.00511800       0.00000000 
N       7.61759000       9.95278000       6.00000000      -0.00289900      -0.00490000       0.00000000 
N       8.83551000      12.26924000       6.00000000       0.00584500      -0.00246300       0.00000000 
N      10.11502000      14.49375000       6.00000000       0.00416500       0.00557200       0.00000000 
N       5.01548000       1.45194000       6.00000000       0.00247200       0.00364500       0.00000000 
N       6.26252000       3.61567000       6.00000000      -0.00259100      -0.00149600       0.00000000 
N       7.57777000       5.74094000       6.00000000      -0.01418300       0.00119800       0.00000000 
N       8.81973000       7.89035000       6.00000000      -0.00267800      -0.00350900       0.00000000 
N      10.08220000      10.10318000       6.00000000       0.00579000      -0.00336700       0.00000000 
N      11.33110000      12.30325000       6.00000000       0.00746800       0.00291100       0.00000000 
N      12.57601000      14.49254000       6.00000000       0.00101300       0.00679300       0.00000000 
N       7.50828000       1.47943000       6.00000000      -0.00047900       0.00489800       0.00000000 
N       8.76069000       3.69206000       6.00000000      -0.00605400      -0.01288200       0.00000000 
N       9.98061000       5.76231000       6.00000000       0.00266100       0.00153600       0.00000000 
N      11.30252000       7.94297000       6.00000000       0.00080100      -0.00048900       0.00000000 
N      12.57338000      10.13214000       6.00000000      -0.00056600      -0.00314800       0.00000000 
N      13.82333000      12.31661000       6.00000000      -0.00266200      -0.00185300       0.00000000 
N      15.05312000      14.50334000       6.00000000      -0.00054600       0.00580800       0.00000000 
N       9.97054000       1.51488000       6.00000000      -0.00398700       0.00333100       0.00000000 
N      11.24311000       3.69294000       6.00000000      -0.00437800      -0.00056400       0.00000000 
N      12.53008000       5.81678000       6.00000000      -0.00002300       0.00093800       0.00000000 
N      13.81562000       7.97645000       6.00000000      -0.00616100      -0.00355700       0.00000000 
N      15.07643000      10.14793000       6.00000000       0.00079000       0.00193600       0.00000000 
N      16.32149000      12.32547000       6.00000000      -0.00200300      -0.00388600       0.00000000 
N      17.51911000      14.51831000       6.00000000       0.00132100       0.00574300       0.00000000 
N      12.42816000       1.62064000       6.00000000      -0.00569300      -0.00006100       0.00000000 
N      13.79071000       3.67986000       6.00000000      -0.00002100       0.00669800       0.00000000 
N      15.06138000       5.82280000       6.00000000      -0.00300900       0.00108300       0.00000000 
N      16.32658000       7.98261000       6.00000000       0.00207200      -0.00028400       0.00000000 
N      17.58309000      10.15160000       6.00000000      -0.00205900      -0.00118900       0.00000000 
N      18.82728000      12.33178000       6.00000000      -0.00470600      -0.00434300       0.00000000 
N      19.94864000      14.55744000       6.00000000      -0.00712500      -0.00147700       0.00000000 
N      15.04324000       1.51715000       6.00000000       0.00079000       0.00629400       0.00000000 
N      16.32048000       3.66138000       6.00000000       0.00625500       0.00501200       0.00000000 
N      17.57816000       5.81305000       6.00000000      -0.00293600      -0.00137900       0.00000000 
N      18.83492000       7.97209000       6.00000000      -0.00436700       0.00020800       0.00000000 
N      20.09327000      10.13901000       6.00000000      -0.00611500      -0.00190400       0.00000000 
N      21.36041000      12.33244000       6.00000000       0.00919000       0.00530600       0.00000000 
N      13.43203000      -0.38559000       6.00000000      -0.00292900      -0.01340200       0.00000000 
N      17.60946000       1.51299000       6.00000000       0.00690800       0.00082100       0.00000000 
N      18.83891000       3.64488000       6.00000000       0.00639000      -0.00251900       0.00000000 
N      20.08682000       5.78471000       6.00000000       0.00475700      -0.00337700       0.00000000 
N      21.33278000       7.91284000       6.00000000       0.00563400      -0.00172700       0.00000000 
N      22.58143000       9.99731000       6.00000000      -0.00484100      -0.00543200       0.00000000 
N       6.38208000      11.82528000       6.00000000      -0.01307100       0.00416400       0.00000000 
N      -1.00993000      -0.58308000       6.00000000      -0.00548700      -0.00316800       0.00000000 
Au      23.67057000      13.66620000       6.00000000       0.00482800       0.00278800       0.00000000 
