
                                 *****************
                                 * O   R   C   A *
                                 *****************

           --- An Ab Initio, DFT and Semiempirical electronic structure package ---

                  #######################################################
                  #                        -***-                        #
                  #  Department of molecular theory and spectroscopy    #
                  #              Directorship: Frank Neese              #
                  # Max Planck Institute for Chemical Energy Conversion #
                  #                  D-45470 Muelheim/Ruhr              #
                  #                       Germany                       #
                  #                                                     #
                  #                  All rights reserved                #
                  #                        -***-                        #
                  #######################################################


                         Program Version 4.0.1.2 - RELEASE -


 With contributions from (in alphabetic order):
   Daniel Aravena         : Magnetic Properties
   Michael Atanasov       : Ab Initio Ligand Field Theory
   Ute Becker             : Parallelization
   Martin Brehm           : Molecular dynamics
   Dmytro Bykov           : SCF Hessian
   Vijay G. Chilkuri      : MRCI spin determinant printing
   Dipayan Datta          : RHF DLPNO-CCSD density
   Achintya Kumar Dutta   : EOM-CC, STEOM-CC
   Dmitry Ganyushin       : Spin-Orbit,Spin-Spin,Magnetic field MRCI
   Yang Guo               : DLPNO-NEVPT2, CIM, IAO-localization
   Andreas Hansen         : Spin unrestricted coupled pair/coupled cluster methods
   Lee Huntington         : MR-EOM, pCC
   Robert Izsak           : Overlap fitted RIJCOSX, COSX-SCS-MP3, EOM
   Christian Kollmar      : KDIIS, OOCD, Brueckner-CCSD(T), CCSD density
   Simone Kossmann        : Meta GGA functionals, TD-DFT gradient, OOMP2, MP2 Hessian
   Martin Krupicka        : AUTO-CI
   Dagmar Lenk            : GEPOL surface
   Dimitrios Liakos       : Extrapolation schemes; parallel MDCI
   Dimitrios Manganas     : ROCIS; embedding schemes
   Dimitrios Pantazis     : SARC Basis sets
   Taras Petrenko         : DFT Hessian,TD-DFT gradient, ASA, ECA, R-Raman, ABS, FL, XAS/XES, NRVS
   Peter Pinski           : DLPNO-MP2
   Christoph Reimann      : Effective Core Potentials
   Marius Retegan         : Local ZFS, SOC
   Christoph Riplinger    : Optimizer, TS searches, QM/MM, DLPNO-CCSD(T), (RO)-DLPNO pert. Triples
   Tobias Risthaus        : Range-separated hybrids, TD-DFT gradient, RPA, STAB
   Michael Roemelt        : Restricted open shell CIS
   Masaaki Saitow         : Open-shell DLPNO
   Barbara Sandhoefer     : DKH picture change effects
   Kantharuban Sivalingam : CASSCF convergence, NEVPT2, FIC-MRCI
   Georgi Stoychev        : AutoAux
   Boris Wezisla          : Elementary symmetry handling
   Frank Wennmohs         : Technical directorship


 We gratefully acknowledge several colleagues who have allowed us to
 interface, adapt or use parts of their codes:
   Stefan Grimme, W. Hujo, H. Kruse,             : VdW corrections, initial TS optimization,
                  C. Bannwarth                     DFT functionals, gCP, sTDA/sTD-DF
   Ed Valeev                                     : LibInt (2-el integral package), F12 methods
   Garnet Chan, S. Sharma, J. Yang, R. Olivares  : DMRG
   Ulf Ekstrom                                   : XCFun DFT Library
   Mihaly Kallay                                 : mrcc  (arbitrary order and MRCC methods)
   Andreas Klamt, Michael Diedenhofen            : otool_cosmo (COSMO solvation model)
   Jiri Pittner, Ondrej Demel                    : Mk-CCSD
   Frank Weinhold                                : gennbo (NPA and NBO analysis)
   Christopher J. Cramer and Donald G. Truhlar   : smd solvation model


 Your calculation uses the libint2 library for the computation of 2-el integrals
 For citations please refer to: http://libint.valeyev.net

 This ORCA versions uses:
   CBLAS   interface :  Fast vector & matrix operations
   LAPACKE interface :  Fast linear algebra routines
   SCALAPACK package :  Parallel linear algebra routines


Your calculation utilizes the atom-pairwise dispersion correction
with the Becke-Johnson damping scheme (D3BJ)
Cite in your paper:
S.Grimme, S.Ehrlich, L.Goerigk, J Comput Chem, (2011), 32, 1456–1465 
S.Grimme, J.Antony, S.Ehrlich and H.Krieg, J.Chem.Phys., 132, (2010), 154104 
   

Your calculation utilizes the basis: cc-pVDZ 
       H, B-Ne : Obtained from the ccRepo (grant-hill.group.shef.ac.uk/ccrepo) Feb. 2017
                 T. H. Dunning, Jr., J. Chem. Phys. 90, 1007 (1989)
            He : Obtained from the ccRepo (grant-hill.group.shef.ac.uk/ccrepo) Feb. 2017
                 D. E. Woon, T. H. Dunning, Jr., J. Chem. Phys. 100, 2975 (1994)
  Li-Be, Na-Mg : Obtained from the ccRepo (grant-hill.group.shef.ac.uk/ccrepo) Feb. 2017
                 B. P. Prascher, D. E. Woon, K. A. Peterson, T. H. Dunning, Jr., A. K. Wilson, Theor. Chem. Acc. 128, 69 (2011)
         Al-Ar : Obtained from the ccRepo (grant-hill.group.shef.ac.uk/ccrepo) Feb. 2017
                 D. E. Woon, T. H. Dunning, Jr., J. Chem. Phys. 98, 1358 (1993)
            Ca : Obtained from the Peterson Research Group Website (tyr0.chem.wsu.edu/~kipeters) Feb. 2017
                 J. Koput, K. A. Peterson, J. Phys. Chem. 106, 9595 (2002)
         Sc-Zn : Obtained from the ccRepo (grant-hill.group.shef.ac.uk/ccrepo) Feb. 2017
                 N. B. Balabanov, K. A. Peterson, J. Chem. Phys. 123, 064107 (2005)
                 N. B. Balabanov, K. A. Peterson, J. Chem. Phys. 125, 074110 (2006)
         Ga-Kr : Obtained from the ccRepo (grant-hill.group.shef.ac.uk/ccrepo) Feb. 2017
                 A. K. Wilson, D. E. Woon, K. A. Peterson, T. H. Dunning, Jr., J. Chem. Phys. 110, 7667 (1999)

Your calculation utilizes the auxiliary basis: def2/J
   F. Weigend, Phys. Chem. Chem. Phys. 8, 1057 (2006).

================================================================================
                                        WARNINGS
                       Please study these warnings very carefully!
================================================================================

Warning: TCutStore was < 0. Adjusted to Thresh (uncritical)

WARNING: Geometry Optimization
  ===> : Switching off AutoStart
         For restart on a previous wavefunction, please use MOREAD

INFO   : the flag for use of LIBINT has been found!

================================================================================
                                       INPUT FILE
================================================================================
NAME = AT-v/e/frag_18_c00001.com
|  1> %pal nprocs 6 end
|  2> %maxcore 1000
|  3> ! b3lyp TIGHTSCF nopop D3BJ
|  4> ! cc-pvdz def2/J RIJCOSX
|  5> ! Opt
|  6> 
|  7> %geom
|  8> maxiter 60
|  9> TolE 1e-4
| 10> TolRMSG 2e-3
| 11> TolMaxG 3e-3
| 12> TolRMSD 2e-2
| 13> TolMaxD 3e-2
| 14> end
| 15> 
| 16> *xyz 0 1
| 17> C 3.1055 -0.5239 -0.0435
| 18> C 1.6176 -0.6179 -0.0968
| 19> N 1.0272 -1.8344 -0.2418
| 20> N 0.8218 0.4026 -0.0141
| 21> C 3.8041 0.6091 0.0953
| 22> C -2.5715 1.5908 -0.1051
| 23> O -2.0639 2.6907 -0.2778
| 24> N -1.872 0.4252 0.0277
| 25> C -2.4217 -0.8098 0.2203
| 26> O -1.7689 -1.8409 0.3363
| 27> H 3.6338 -1.4668 -0.1475
| 28> H 1.4962 -2.6307 0.1685
| 29> H 0.0265 -1.8394 -0.0251
| 30> H 1.362 1.2688 0.0748
| 31> H 4.8901 0.5755 0.1106
| 32> H 3.3521 1.5878 0.1952
| 33> H -3.6639 1.4573 -0.0399
| 34> H -0.8486 0.4778 -0.026
| 35> H -3.5229 -0.8045 0.2647
| 36> *
| 37> 
| 38> 
| 39>                          ****END OF INPUT****
================================================================================

                       *****************************
                       * Geometry Optimization Run *
                       *****************************

Geometry optimization settings:
Update method            Update   .... BFGS
Choice of coordinates    CoordSys .... Redundant Internals
Initial Hessian          InHess   .... Almoef's Model

Convergence Tolerances:
Energy Change            TolE     ....  1.0000e-04 Eh
Max. Gradient            TolMAXG  ....  3.0000e-03 Eh/bohr
RMS Gradient             TolRMSG  ....  2.0000e-03 Eh/bohr
Max. Displacement        TolMAXD  ....  3.0000e-02 bohr
RMS Displacement         TolRMSD  ....  2.0000e-02 bohr

------------------------------------------------------------------------------
                        ORCA OPTIMIZATION COORDINATE SETUP
------------------------------------------------------------------------------

The optimization will be done in new redundant internal coordinates
Making redundant internal coordinates   ...  (new redundants) done
Evaluating the initial hessian          ...  (Almloef) done
Evaluating the coordinates              ...  done
Calculating the B-matrix                .... done
Calculating the G-matrix                .... done
Diagonalizing the G-matrix              .... done
Small eigenvalue found = 1.728e-02
The first mode is                       ....   28
The number of degrees of freedom        ....   51

    -----------------------------------------------------------------
                    Redundant Internal Coordinates


    -----------------------------------------------------------------
         Definition                    Initial Value    Approx d2E/dq
    -----------------------------------------------------------------
      1. B(C   1,C   0)                  1.4918         0.429826   
      2. B(N   2,C   1)                  1.3600         0.624907   
      3. B(N   3,C   1)                  1.2967         0.788228   
      4. B(C   4,C   0)                  1.3383         0.755532   
      5. B(O   6,C   5)                  1.2236         1.031129   
      6. B(N   7,C   5)                  1.3659         0.611501   
      7. B(C   8,N   7)                  1.3655         0.612382   
      8. B(O   9,C   8)                  1.2259         1.022646   
      9. B(H  10,C   0)                  1.0858         0.365689   
     10. B(H  11,N   2)                  1.0111         0.430902   
     11. B(H  12,N   2)                  1.0239         0.411157   
     12. B(H  12,O   9)                  1.8314         0.021168   
     13. B(H  13,N   3)                  1.0247         0.409952   
     14. B(H  14,C   4)                  1.0866         0.364589   
     15. B(H  15,C   4)                  1.0827         0.369951   
     16. B(H  16,C   5)                  1.1025         0.343993   
     17. B(H  17,N   3)                  1.6721         0.038002   
     18. B(H  17,N   7)                  1.0262         0.407772   
     19. B(H  18,C   8)                  1.1021         0.344434   
     20. A(C   1,C   0,H  10)          115.2857         0.332758   
     21. A(C   4,C   0,H  10)          119.4150         0.365950   
     22. A(C   1,C   0,C   4)          125.2884         0.421144   
     23. A(C   0,C   1,N   3)          124.0704         0.421584   
     24. A(C   0,C   1,N   2)          119.5489         0.404558   
     25. A(N   2,C   1,N   3)          116.3807         0.448003   
     26. A(H  11,N   2,H  12)          111.3212         0.300594   
     27. A(C   1,N   2,H  12)          113.9598         0.356044   
     28. A(C   1,N   2,H  11)          117.3759         0.358895   
     29. A(C   1,N   3,H  13)          110.3191         0.370267   
     30. A(H  13,N   3,H  17)          119.2900         0.211046   
     31. A(C   1,N   3,H  17)          130.3902         0.253183   
     32. A(C   0,C   4,H  15)          123.8453         0.366677   
     33. A(C   0,C   4,H  14)          119.8013         0.365761   
     34. A(H  14,C   4,H  15)          116.3533         0.292646   
     35. A(O   6,C   5,N   7)          124.6365         0.468640   
     36. A(N   7,C   5,H  16)          113.4765         0.347232   
     37. A(O   6,C   5,H  16)          121.8869         0.379650   
     38. A(C   5,N   7,C   8)          125.4077         0.426406   
     39. A(C   8,N   7,H  17)          117.0801         0.354327   
     40. A(C   5,N   7,H  17)          117.5114         0.354240   
     41. A(N   7,C   8,O   9)          124.0363         0.468054   
     42. A(O   9,C   8,H  18)          122.1618         0.379191   
     43. A(N   7,C   8,H  18)          113.8019         0.347392   
     44. A(C   8,O   9,H  12)          120.1777         0.241547   
     45. L(N   2,H  12,O   9,C   1, 2) 178.5997         0.195978   
     46. L(N   2,H  12,O   9,C   1, 1) 179.9440         0.195978   
     47. A(N   3,H  17,N   7)          173.5149         0.210899   
     48. D(N   3,C   1,C   0,H  10)   -178.7506         0.012623   
     49. D(N   2,C   1,C   0,C   4)    179.9693         0.012623   
     50. D(N   3,C   1,C   0,C   4)      0.0359         0.012623   
     51. D(N   2,C   1,C   0,H  10)      1.1829         0.012623   
     52. D(H  12,N   2,C   1,C   0)    164.8218         0.031661   
     53. D(H  12,N   2,C   1,N   3)    -15.2398         0.031661   
     54. D(H  11,N   2,C   1,C   0)     32.1207         0.031661   
     55. D(H  11,N   2,C   1,N   3)   -147.9408         0.031661   
     56. D(H  17,N   3,C   1,N   2)      1.3694         0.052780   
     57. D(H  17,N   3,C   1,C   0)   -178.6953         0.052780   
     58. D(H  13,N   3,C   1,N   2)   -178.9354         0.052780   
     59. D(H  13,N   3,C   1,C   0)      1.0000         0.052780   
     60. D(H  15,C   4,C   0,C   1)      0.6870         0.040767   
     61. D(H  14,C   4,C   0,H  10)     -0.4790         0.040767   
     62. D(H  14,C   4,C   0,C   1)   -179.2193         0.040767   
     63. D(H  15,C   4,C   0,H  10)    179.4273         0.040767   
     64. D(H  17,N   7,C   5,H  16)    179.8300         0.030215   
     65. D(H  17,N   7,C   5,O   6)     -0.3050         0.030215   
     66. D(C   8,N   7,C   5,H  16)      0.1601         0.030215   
     67. D(C   8,N   7,C   5,O   6)   -179.9750         0.030215   
     68. D(H  18,C   8,N   7,H  17)   -179.7197         0.030309   
     69. D(H  18,C   8,N   7,C   5)     -0.0485         0.030309   
     70. D(O   9,C   8,N   7,H  17)      0.3227         0.030309   
     71. D(O   9,C   8,N   7,C   5)    179.9939         0.030309   
     72. D(H  12,O   9,C   8,H  18)    169.6421         0.086266   
     73. D(H  12,O   9,C   8,N   7)    -10.4038         0.086266   
     74. D(C   8,O   9,N   2,H  11)    161.4594         0.001500   
     75. D(C   8,O   9,N   2,C   1)     25.5346         0.001500   
     76. D(N   3,H  17,N   7,C   5)    156.2705         0.186184   
     77. D(N   7,H  17,N   3,H  13)   -142.7881         0.002308   
     78. D(N   7,H  17,N   3,C   1)     36.8842         0.002308   
     79. D(N   3,H  17,N   7,C   8)    -24.0317         0.186184   
    -----------------------------------------------------------------

Number of atoms                         .... 19
Number of degrees of freedom            .... 79

         *************************************************************
         *                GEOMETRY OPTIMIZATION CYCLE   1            *
         *************************************************************
---------------------------------
CARTESIAN COORDINATES (ANGSTROEM)
---------------------------------
  C      3.105500   -0.523900   -0.043500
  C      1.617600   -0.617900   -0.096800
  N      1.027200   -1.834400   -0.241800
  N      0.821800    0.402600   -0.014100
  C      3.804100    0.609100    0.095300
  C     -2.571500    1.590800   -0.105100
  O     -2.063900    2.690700   -0.277800
  N     -1.872000    0.425200    0.027700
  C     -2.421700   -0.809800    0.220300
  O     -1.768900   -1.840900    0.336300
  H      3.633800   -1.466800   -0.147500
  H      1.496200   -2.630700    0.168500
  H      0.026500   -1.839400   -0.025100
  H      1.362000    1.268800    0.074800
  H      4.890100    0.575500    0.110600
  H      3.352100    1.587800    0.195200
  H     -3.663900    1.457300   -0.039900
  H     -0.848600    0.477800   -0.026000
  H     -3.522900   -0.804500    0.264700

----------------------------
CARTESIAN COORDINATES (A.U.)
----------------------------
  NO LB      ZA    FRAG     MASS         X           Y           Z
   0 C     6.0000    0    12.011    5.868545   -0.990028   -0.082203
   1 C     6.0000    0    12.011    3.056821   -1.167662   -0.182925
   2 N     7.0000    0    14.007    1.941127   -3.466514   -0.456936
   3 N     7.0000    0    14.007    1.552977    0.760804   -0.026645
   4 C     6.0000    0    12.011    7.188707    1.151032    0.180091
   5 C     6.0000    0    12.011   -4.859431    3.006176   -0.198610
   6 O     8.0000    0    15.999   -3.900206    5.084686   -0.524966
   7 N     7.0000    0    14.007   -3.537567    0.803512    0.052345
   8 C     6.0000    0    12.011   -4.576350   -1.530300    0.416307
   9 O     8.0000    0    15.999   -3.342737   -3.478797    0.635515
  10 H     1.0000    0     1.008    6.866887   -2.771850   -0.278735
  11 H     1.0000    0     1.008    2.827408   -4.971303    0.318419
  12 H     1.0000    0     1.008    0.050078   -3.475962   -0.047432
  13 H     1.0000    0     1.008    2.573807    2.397685    0.141352
  14 H     1.0000    0     1.008    9.240950    1.087537    0.209004
  15 H     1.0000    0     1.008    6.334551    3.000507    0.368875
  16 H     1.0000    0     1.008   -6.923768    2.753898   -0.075400
  17 H     1.0000    0     1.008   -1.603622    0.902911   -0.049133
  18 H     1.0000    0     1.008   -6.657316   -1.520285    0.500211

--------------------------------
INTERNAL COORDINATES (ANGSTROEM)
--------------------------------
 C      0   0   0     0.000000000000     0.00000000     0.00000000
 C      1   0   0     1.491818789264     0.00000000     0.00000000
 N      2   1   0     1.359951988123   119.54887153     0.00000000
 N      2   1   3     1.296748695777   124.07038564   180.06656515
 C      1   2   3     1.338281136384   125.28839210   179.96933610
 C      4   2   1     3.596468424719   146.86713740   176.66234889
 O      6   4   2     1.223627010163    84.78729057   197.22940113
 N      6   4   2     1.365854842214    39.86081422    15.92044298
 C      8   6   4     1.365463236415   125.40770806   178.44062382
 O      9   8   6     1.225875625828   124.03632427   179.99393877
 H      1   2   3     1.085807211249   115.28574820     1.18287501
 H      3   2   1     1.011138358485   117.37594078    32.12074370
 H      3   2   1     1.023906431272   113.95984383   164.82176680
 H      4   2   1     1.024705660178   110.31907263     0.99997087
 H      5   1   2     1.086627374034   119.80129340   180.78070850
 H      5   1   2     1.082653083864   123.84534053     0.68698371
 H      6   4   2     1.102456824551   153.30350893    19.43254349
 H      8   6   4     1.026156912952   117.51143551   358.11056666
 H      9   8   6     1.102107476610   113.80188969   359.95148334

---------------------------
INTERNAL COORDINATES (A.U.)
---------------------------
 C      0   0   0     0.000000000000     0.00000000     0.00000000
 C      1   0   0     2.819128953146     0.00000000     0.00000000
 N      2   1   0     2.569936812834   119.54887153     0.00000000
 N      2   1   3     2.450499899539   124.07038564   180.06656515
 C      1   2   3     2.528984837958   125.28839210   179.96933610
 C      4   2   1     6.796340372014   146.86713740   176.66234889
 O      6   4   2     2.312319939277    84.78729057   197.22940113
 N      6   4   2     2.581091590475    39.86081422    15.92044298
 C      8   6   4     2.580351562761   125.40770806   178.44062382
 O      9   8   6     2.316569207065   124.03632427   179.99393877
 H      1   2   3     2.051878263497   115.28574820     1.18287501
 H      3   2   1     1.910774581040   117.37594078    32.12074370
 H      3   2   1     1.934902741865   113.95984383   164.82176680
 H      4   2   1     1.936413065615   110.31907263     0.99997087
 H      5   1   2     2.053428146546   119.80129340   180.78070850
 H      5   1   2     2.045917826548   123.84534053     0.68698371
 H      6   4   2     2.083341472875   153.30350893    19.43254349
 H      8   6   4     1.939155535910   117.51143551   358.11056666
 H      9   8   6     2.082681300940   113.80188969   359.95148334

---------------------
BASIS SET INFORMATION
---------------------
There are 4 groups of distinct atoms

 Group   1 Type C   : 17s4p1d contracted to 3s2p1d pattern {881/31/1}
 Group   2 Type N   : 17s4p1d contracted to 3s2p1d pattern {881/31/1}
 Group   3 Type O   : 17s4p1d contracted to 3s2p1d pattern {881/31/1}
 Group   4 Type H   : 4s1p contracted to 2s1p pattern {31/1}

Atom   0C    basis set group =>   1
Atom   1C    basis set group =>   1
Atom   2N    basis set group =>   2
Atom   3N    basis set group =>   2
Atom   4C    basis set group =>   1
Atom   5C    basis set group =>   1
Atom   6O    basis set group =>   3
Atom   7N    basis set group =>   2
Atom   8C    basis set group =>   1
Atom   9O    basis set group =>   3
Atom  10H    basis set group =>   4
Atom  11H    basis set group =>   4
Atom  12H    basis set group =>   4
Atom  13H    basis set group =>   4
Atom  14H    basis set group =>   4
Atom  15H    basis set group =>   4
Atom  16H    basis set group =>   4
Atom  17H    basis set group =>   4
Atom  18H    basis set group =>   4
-------------------------------
AUXILIARY BASIS SET INFORMATION
-------------------------------
There are 4 groups of distinct atoms

 Group   1 Type C   : 12s5p4d2f1g contracted to 6s4p3d1f1g pattern {711111/2111/211/2/1}
 Group   2 Type N   : 12s5p4d2f1g contracted to 6s4p3d1f1g pattern {711111/2111/211/2/1}
 Group   3 Type O   : 12s5p4d2f1g contracted to 6s4p3d1f1g pattern {711111/2111/211/2/1}
 Group   4 Type H   : 5s2p1d contracted to 3s1p1d pattern {311/2/1}

Atom   0C    basis set group =>   1
Atom   1C    basis set group =>   1
Atom   2N    basis set group =>   2
Atom   3N    basis set group =>   2
Atom   4C    basis set group =>   1
Atom   5C    basis set group =>   1
Atom   6O    basis set group =>   3
Atom   7N    basis set group =>   2
Atom   8C    basis set group =>   1
Atom   9O    basis set group =>   3
Atom  10H    basis set group =>   4
Atom  11H    basis set group =>   4
Atom  12H    basis set group =>   4
Atom  13H    basis set group =>   4
Atom  14H    basis set group =>   4
Atom  15H    basis set group =>   4
Atom  16H    basis set group =>   4
Atom  17H    basis set group =>   4
Atom  18H    basis set group =>   4


           ************************************************************
           *        Program running with 6 parallel MPI-processes     *
           *              working on a common directory               *
           ************************************************************
------------------------------------------------------------------------------
                           ORCA GTO INTEGRAL CALCULATION
                           -- RI-GTO INTEGRALS CHOSEN --
------------------------------------------------------------------------------

                         BASIS SET STATISTICS AND STARTUP INFO

Gaussian basis set:
 # of primitive gaussian shells          ...  265
 # of primitive gaussian functions       ...  403
 # of contracted shells                  ...   87
 # of contracted basis functions         ...  185
 Highest angular momentum                ...    2
 Maximum contraction depth               ...    8
Auxiliary gaussian basis set:
 # of primitive gaussian shells          ...  312
 # of primitive gaussian functions       ...  844
 # of contracted shells                  ...  195
 # of contracted aux-basis functions     ...  589
 Highest angular momentum                ...    4
 Maximum contraction depth               ...    7
Ratio of auxiliary to basis functions    ...  3.18
Integral package used                  ... LIBINT
 One Electron integrals                  ... done
 Ordering auxiliary basis shells         ... done
 Integral threshhold             Thresh  ...  2.500e-11
 Primitive cut-off               TCut    ...  2.500e-12
 Pre-screening matrix                    ... done
 Shell pair data                         ... 
 Ordering of the shell pairs             ... done (   0.001 sec) 3383 of 3828 pairs
 Determination of significant pairs      ... done (   0.000 sec)
 Creation of shell pair data             ... done (   0.001 sec)
 Storage of shell pair data              ... done (   0.002 sec)
 Shell pair data done in (   0.004 sec)
 Computing two index integrals           ... done
 Cholesky decomposition of the V-matrix  ... done


Timings:
 Total evaluation time                   ...   0.327 sec (  0.005 min)
 One electron matrix time                ...   0.029 sec (  0.000 min) =  9.0%
 Schwartz matrix evaluation time         ...   0.203 sec (  0.003 min) = 62.0%
 Two index repulsion integral time       ...   0.046 sec (  0.001 min) = 14.2%
 Cholesky decomposition of V             ...   0.011 sec (  0.000 min) =  3.5%
 Three index repulsion integral time     ...   0.000 sec (  0.000 min) =  0.0%



           ************************************************************
           *        Program running with 6 parallel MPI-processes     *
           *              working on a common directory               *
           ************************************************************
-------------------------------------------------------------------------------
                                 ORCA SCF
-------------------------------------------------------------------------------

------------
SCF SETTINGS
------------
Hamiltonian:
 Density Functional     Method          .... DFT(GTOs)
 Exchange Functional    Exchange        .... B88
   X-Alpha parameter    XAlpha          ....  0.666667
   Becke's b parameter  XBeta           ....  0.004200
 Correlation Functional Correlation     .... LYP
 LDA part of GGA corr.  LDAOpt          .... VWN-5
 Gradients option       PostSCFGGA      .... off
 Hybrid DFT is turned on
   Fraction HF Exchange ScalHFX         ....  0.200000
   Scaling of DF-GGA-X  ScalDFX         ....  0.720000
   Scaling of DF-GGA-C  ScalDFC         ....  0.810000
   Scaling of DF-LDA-C  ScalLDAC        ....  1.000000
   Perturbative correction              ....  0.000000
   NL short-range parameter             ....  4.800000
 RI-approximation to the Coulomb term is turned on
   Number of auxiliary basis functions  .... 589
   RIJ-COSX (HFX calculated with COS-X)).... on


General Settings:
 Integral files         IntName         .... AT-v/e/frag_18_c00001
 Hartree-Fock type      HFTyp           .... RHF
 Total Charge           Charge          ....    0
 Multiplicity           Mult            ....    1
 Number of Electrons    NEL             ....   76
 Basis Dimension        Dim             ....  185
 Nuclear Repulsion      ENuc            ....    496.2013457719 Eh

Convergence Acceleration:
 DIIS                   CNVDIIS         .... on
   Start iteration      DIISMaxIt       ....    12
   Startup error        DIISStart       ....  0.200000
   # of expansion vecs  DIISMaxEq       ....     5
   Bias factor          DIISBfac        ....   1.050
   Max. coefficient     DIISMaxC        ....  10.000
 Newton-Raphson         CNVNR           .... off
 SOSCF                  CNVSOSCF        .... on
   Start iteration      SOSCFMaxIt      ....   150
   Startup grad/error   SOSCFStart      ....  0.003300
 Level Shifting         CNVShift        .... on
   Level shift para.    LevelShift      ....    0.2500
   Turn off err/grad.   ShiftErr        ....    0.0010
 Zerner damping         CNVZerner       .... off
 Static damping         CNVDamp         .... on
   Fraction old density DampFac         ....    0.7000
   Max. Damping (<1)    DampMax         ....    0.9800
   Min. Damping (>=0)   DampMin         ....    0.0000
   Turn off err/grad.   DampErr         ....    0.1000
 Fernandez-Rico         CNVRico         .... off

SCF Procedure:
 Maximum # iterations   MaxIter         ....   125
 SCF integral mode      SCFMode         .... Direct
   Integral package                     .... LIBINT
 Reset frequeny         DirectResetFreq ....    20
 Integral Threshold     Thresh          ....  2.500e-11 Eh
 Primitive CutOff       TCut            ....  2.500e-12 Eh

Convergence Tolerance:
 Convergence Check Mode ConvCheckMode   .... Total+1el-Energy
 Convergence forced     ConvForced      .... 0
 Energy Change          TolE            ....  1.000e-08 Eh
 1-El. energy change                    ....  1.000e-05 Eh
 Orbital Gradient       TolG            ....  1.000e-05
 Orbital Rotation angle TolX            ....  1.000e-05
 DIIS Error             TolErr          ....  5.000e-07


Diagonalization of the overlap matrix:
Smallest eigenvalue                        ... 1.924e-03
Time for diagonalization                   ...    0.007 sec
Threshold for overlap eigenvalues          ... 1.000e-08
Number of eigenvalues below threshold      ... 0
Time for construction of square roots      ...    0.004 sec
Total time needed                          ...    0.011 sec

-------------------
DFT GRID GENERATION
-------------------

General Integration Accuracy     IntAcc      ...  4.340
Radial Grid Type                 RadialGrid  ... Gauss-Chebyshev
Angular Grid (max. acc.)         AngularGrid ... Lebedev-110
Angular grid pruning method      GridPruning ... 3 (G Style)
Weight generation scheme         WeightScheme... Becke
Basis function cutoff            BFCut       ...    1.0000e-11
Integration weight cutoff        WCut        ...    1.0000e-14
Grids for H and He will be reduced by one unit

# of grid points (after initial pruning)     ...  23964 (   0.0 sec)
# of grid points (after weights+screening)   ...  22332 (   0.0 sec)
nearest neighbour list constructed           ...    0.0 sec
Grid point re-assignment to atoms done       ...    0.0 sec
Grid point division into batches done        ...    0.0 sec
Reduced shell lists constructed in    0.1 sec

Total number of grid points                  ...    22332
Total number of batches                      ...      359
Average number of points per batch           ...       62
Average number of grid points per atom       ...     1175
Average number of shells per batch           ...    64.44 (74.07%)
Average number of basis functions per batch  ...   132.57 (71.66%)
Average number of large shells per batch     ...    49.03 (76.09%)
Average number of large basis fcns per batch ...    99.85 (75.32%)
Maximum spatial batch extension              ...   7.25,  8.56, 19.32 au
Average spatial batch extension              ...   0.31,  0.32,  0.52 au

Time for grid setup =    0.120 sec

------------------------------
INITIAL GUESS: MODEL POTENTIAL
------------------------------
Loading Hartree-Fock densities                     ... done
Calculating cut-offs                               ... done
Setting up the integral package                    ... done
Initializing the effective Hamiltonian             ... done
Starting the Coulomb interaction                   ... done (   0.1 sec)
Reading the grid                                   ... done
Mapping shells                                     ... done
Starting the XC term evaluation                    ... done (   0.1 sec)
  promolecular density results
     # of electrons  =     76.010506217
     EX              =    -64.463116163
     EC              =     -2.595516749
     EX+EC           =    -67.058632911
Transforming the Hamiltonian                       ... done (   0.0 sec)
Diagonalizing the Hamiltonian                      ... done (   0.0 sec)
Back transforming the eigenvectors                 ... done (   0.0 sec)
Now organizing SCF variables                       ... done
                      ------------------
                      INITIAL GUESS DONE (   0.4 sec)
                      ------------------
--------------------
COSX GRID GENERATION
--------------------

General Integration Accuracy     IntAcc      ...  3.340
Radial Grid Type                 RadialGrid  ... Gauss-Chebyshev
Angular Grid (max. acc.)         AngularGrid ... Lebedev-50
Angular grid pruning method      GridPruning ... 3 (G Style)
Weight generation scheme         WeightScheme... Becke
Basis function cutoff            BFCut       ...    1.0000e-11
Integration weight cutoff        WCut        ...    1.0000e-14
Grids for H and He will be reduced by one unit

# of grid points (after initial pruning)     ...   8638 (   0.0 sec)
# of grid points (after weights+screening)   ...   8093 (   0.0 sec)
nearest neighbour list constructed           ...    0.0 sec
Grid point re-assignment to atoms done       ...    0.0 sec
Grid point division into batches done        ...    0.0 sec
Reduced shell lists constructed in    0.0 sec

Total number of grid points                  ...     8093
Total number of batches                      ...      136
Average number of points per batch           ...       59
Average number of grid points per atom       ...      426
Average number of shells per batch           ...    65.33 (75.10%)
Average number of basis functions per batch  ...   135.00 (72.97%)
Average number of large shells per batch     ...    49.25 (75.38%)
Average number of large basis fcns per batch ...   100.42 (74.38%)
Maximum spatial batch extension              ...   4.37,  8.43, 17.63 au
Average spatial batch extension              ...   0.39,  0.43,  0.87 au

Overlap Fitting                  UseSFitting ... on
Constructing numerical overlap ... done (      0.0 sec)
Inverting numerical overlap    ... done (      0.0 sec)
Obtaining analytic overlap     ... done (      0.0 sec)
Final contraction and storage  ... done (      0.0 sec)


General Integration Accuracy     IntAcc      ...  3.670
Radial Grid Type                 RadialGrid  ... Gauss-Chebyshev
Angular Grid (max. acc.)         AngularGrid ... Lebedev-50
Angular grid pruning method      GridPruning ... 3 (G Style)
Weight generation scheme         WeightScheme... Becke
Basis function cutoff            BFCut       ...    1.0000e-11
Integration weight cutoff        WCut        ...    1.0000e-14
Grids for H and He will be reduced by one unit

# of grid points (after initial pruning)     ...  11032 (   0.0 sec)
# of grid points (after weights+screening)   ...  10319 (   0.0 sec)
nearest neighbour list constructed           ...    0.0 sec
Grid point re-assignment to atoms done       ...    0.0 sec
Grid point division into batches done        ...    0.0 sec
Reduced shell lists constructed in    0.0 sec

Total number of grid points                  ...    10319
Total number of batches                      ...      172
Average number of points per batch           ...       59
Average number of grid points per atom       ...      543
Average number of shells per batch           ...    65.90 (75.75%)
Average number of basis functions per batch  ...   136.37 (73.71%)
Average number of large shells per batch     ...    50.00 (75.87%)
Average number of large basis fcns per batch ...   101.80 (74.65%)
Maximum spatial batch extension              ...   4.15,  5.36, 19.15 au
Average spatial batch extension              ...   0.37,  0.35,  0.78 au

Overlap Fitting                  UseSFitting ... on
Constructing numerical overlap ... done (      0.0 sec)
Inverting numerical overlap    ... done (      0.0 sec)
Obtaining analytic overlap     ... done (      0.0 sec)
Final contraction and storage  ... done (      0.0 sec)


General Integration Accuracy     IntAcc      ...  4.010
Radial Grid Type                 RadialGrid  ... Gauss-Chebyshev
Angular Grid (max. acc.)         AngularGrid ... Lebedev-110
Angular grid pruning method      GridPruning ... 3 (G Style)
Weight generation scheme         WeightScheme... Becke
Basis function cutoff            BFCut       ...    1.0000e-11
Integration weight cutoff        WCut        ...    1.0000e-14
Grids for H and He will be reduced by one unit

# of grid points (after initial pruning)     ...  20600 (   0.0 sec)
# of grid points (after weights+screening)   ...  19225 (   0.0 sec)
nearest neighbour list constructed           ...    0.0 sec
Grid point re-assignment to atoms done       ...    0.0 sec
Grid point division into batches done        ...    0.0 sec
Reduced shell lists constructed in    0.1 sec

Total number of grid points                  ...    19225
Total number of batches                      ...      311
Average number of points per batch           ...       61
Average number of grid points per atom       ...     1012
Average number of shells per batch           ...    64.83 (74.52%)
Average number of basis functions per batch  ...   133.66 (72.25%)
Average number of large shells per batch     ...    49.51 (76.37%)
Average number of large basis fcns per batch ...   100.98 (75.55%)
Maximum spatial batch extension              ...   6.60,  8.56, 22.44 au
Average spatial batch extension              ...   0.33,  0.35,  0.59 au

Overlap Fitting                  UseSFitting ... on
Constructing numerical overlap ... done (      0.0 sec)
Inverting numerical overlap    ... done (      0.0 sec)
Obtaining analytic overlap     ... done (      0.0 sec)
Final contraction and storage  ... done (      0.0 sec)

Time for X-Grid setup             =    0.351 sec
--------------
SCF ITERATIONS
--------------
ITER       Energy         Delta-E        Max-DP      RMS-DP      [F,P]     Damp
               ***  Starting incremental Fock matrix formation  ***
  0   -509.9958666079   0.000000000000 0.10467504  0.00265161  0.2723835 0.7000
  1   -510.1940651624  -0.198198554480 0.06119697  0.00165349  0.1124104 0.7000
                               ***Turning on DIIS***
  2   -510.2598397760  -0.065774613594 0.07904018  0.00222042  0.0469619 0.0000
  3   -510.3762643893  -0.116424613290 0.04158299  0.00117912  0.0612138 0.0000
  4   -510.3975735521  -0.021309162749 0.01227718  0.00035228  0.0195029 0.0000
  5   -510.3998586865  -0.002285134416 0.00353677  0.00010744  0.0035736 0.0000
                      *** Initiating the SOSCF procedure ***
                           *** Shutting down DIIS ***
                      *** Re-Reading the Fockian *** 
                      *** Removing any level shift *** 
ITER      Energy       Delta-E        Grad      Rot      Max-DP    RMS-DP
  6   -510.39993982  -0.0000811307  0.000639  0.000639  0.001449  0.000040
               *** Restarting incremental Fock matrix formation ***
  7   -510.39997511  -0.0000352967  0.000222  0.000691  0.000942  0.000026
  8   -510.39997468   0.0000004352  0.000231  0.000458  0.000568  0.000012
  9   -510.39997629  -0.0000016114  0.000053  0.000166  0.000264  0.000008
 10   -510.39997635  -0.0000000597  0.000064  0.000062  0.000088  0.000003
 11   -510.39997643  -0.0000000812  0.000017  0.000052  0.000069  0.000002
 12   -510.39997643   0.0000000042  0.000020  0.000030  0.000043  0.000001
 13   -510.39997644  -0.0000000097  0.000005  0.000008  0.000021  0.000000
                 **** Energy Check signals convergence ****
              ***Rediagonalizing the Fockian in SOSCF/NRSCF***

               *****************************************************
               *                     SUCCESS                       *
               *           SCF CONVERGED AFTER  14 CYCLES          *
               *****************************************************

Setting up the final grid:

General Integration Accuracy     IntAcc      ...  4.670
Radial Grid Type                 RadialGrid  ... Gauss-Chebyshev
Angular Grid (max. acc.)         AngularGrid ... Lebedev-302
Angular grid pruning method      GridPruning ... 3 (G Style)
Weight generation scheme         WeightScheme... Becke
Basis function cutoff            BFCut       ...    1.0000e-11
Integration weight cutoff        WCut        ...    1.0000e-14
Grids for H and He will be reduced by one unit

# of grid points (after initial pruning)     ...  92666 (   0.0 sec)
# of grid points (after weights+screening)   ...  85026 (   0.1 sec)
nearest neighbour list constructed           ...    0.0 sec
Grid point re-assignment to atoms done       ...    0.0 sec
Grid point division into batches done        ...    0.4 sec
Reduced shell lists constructed in    0.5 sec

Total number of grid points                  ...    85026
Total number of batches                      ...     1338
Average number of points per batch           ...       63
Average number of grid points per atom       ...     4475
Average number of shells per batch           ...    61.66 (70.87%)
Average number of basis functions per batch  ...   126.54 (68.40%)
Average number of large shells per batch     ...    46.01 (74.62%)
Average number of large basis fcns per batch ...    93.61 (73.97%)
Maximum spatial batch extension              ...   8.14, 12.72, 20.63 au
Average spatial batch extension              ...   0.23,  0.24,  0.31 au

Final grid set up in    0.7 sec
Final integration                            ... done (   0.3 sec)
Change in XC energy                          ...    -0.000147567
Integrated number of electrons               ...    75.999951773
Previous integrated no of electrons          ...    76.005391663
Old exchange energy                            =    -13.078092578 Eh
New exchange energy                            =    -13.077625355 Eh
Exchange energy change after final integration =      0.000467223 Eh
Total energy after final integration           =   -510.399656782 Eh
Final COS-X integration done in                =     2.029 sec

----------------
TOTAL SCF ENERGY
----------------

Total Energy       :         -510.39965678 Eh          -13888.68075 eV

Components:
Nuclear Repulsion  :          496.20134577 Eh           13502.32506 eV
Electronic Energy  :        -1006.60100255 Eh          -27391.00581 eV
One Electron Energy:        -1678.32653756 Eh          -45669.58688 eV
Two Electron Energy:          671.72553501 Eh           18278.58107 eV

Virial components:
Potential Energy   :        -1017.91702569 Eh          -27698.93046 eV
Kinetic Energy     :          507.51736891 Eh           13810.24971 eV
Virial Ratio       :            2.00567919


DFT components:
N(Alpha)           :       37.999975886489 electrons
N(Beta)            :       37.999975886489 electrons
N(Total)           :       75.999951772978 electrons
E(X)               :      -52.022088157096 Eh       
E(C)               :       -3.065391123372 Eh       
E(XC)              :      -55.087479280468 Eh       

---------------
SCF CONVERGENCE
---------------

  Last Energy change         ...   -9.4155e-10  Tolerance :   1.0000e-08
  Last MAX-Density change    ...    2.9025e-13  Tolerance :   1.0000e-07
  Last RMS-Density change    ...    1.6975e-15  Tolerance :   5.0000e-09
  Last Orbital Gradient      ...    6.9901e-06  Tolerance :   1.0000e-05
  Last Orbital Rotation      ...    6.5907e-06  Tolerance :   1.0000e-05

             **** THE GBW FILE WAS UPDATED (AT-v/e/frag_18_c00001.gbw) ****
             **** DENSITY FILE WAS UPDATED (AT-v/e/frag_18_c00001.scfp.tmp) ****
             **** ENERGY FILE WAS UPDATED (AT-v/e/frag_18_c00001.en.tmp) ****
----------------
ORBITAL ENERGIES
----------------

  NO   OCC          E(Eh)            E(eV) 
   0   2.0000     -19.139679      -520.8171 
   1   2.0000     -19.123488      -520.3766 
   2   2.0000     -14.357971      -390.7002 
   3   2.0000     -14.330126      -389.9426 
   4   2.0000     -14.294996      -388.9866 
   5   2.0000     -10.308890      -280.5192 
   6   2.0000     -10.295900      -280.1657 
   7   2.0000     -10.265698      -279.3439 
   8   2.0000     -10.214186      -277.9421 
   9   2.0000     -10.211561      -277.8707 
  10   2.0000      -1.061294       -28.8793 
  11   2.0000      -1.037945       -28.2439 
  12   2.0000      -0.951359       -25.8878 
  13   2.0000      -0.933406       -25.3993 
  14   2.0000      -0.847525       -23.0623 
  15   2.0000      -0.786555       -21.4033 
  16   2.0000      -0.662910       -18.0387 
  17   2.0000      -0.649265       -17.6674 
  18   2.0000      -0.630676       -17.1616 
  19   2.0000      -0.569285       -15.4910 
  20   2.0000      -0.534237       -14.5373 
  21   2.0000      -0.520787       -14.1713 
  22   2.0000      -0.502431       -13.6719 
  23   2.0000      -0.475050       -12.9268 
  24   2.0000      -0.454652       -12.3717 
  25   2.0000      -0.442857       -12.0508 
  26   2.0000      -0.437883       -11.9154 
  27   2.0000      -0.429055       -11.6752 
  28   2.0000      -0.418268       -11.3817 
  29   2.0000      -0.391252       -10.6465 
  30   2.0000      -0.386224       -10.5097 
  31   2.0000      -0.381218       -10.3735 
  32   2.0000      -0.302877        -8.2417 
  33   2.0000      -0.287153        -7.8138 
  34   2.0000      -0.280458        -7.6317 
  35   2.0000      -0.270480        -7.3601 
  36   2.0000      -0.256474        -6.9790 
  37   2.0000      -0.237200        -6.4545 
  38   0.0000      -0.047591        -1.2950 
  39   0.0000      -0.030942        -0.8420 
  40   0.0000       0.041405         1.1267 
  41   0.0000       0.056015         1.5243 
  42   0.0000       0.070714         1.9242 
  43   0.0000       0.074567         2.0291 
  44   0.0000       0.081270         2.2115 
  45   0.0000       0.100247         2.7279 
  46   0.0000       0.123751         3.3674 
  47   0.0000       0.145383         3.9561 
  48   0.0000       0.171869         4.6768 
  49   0.0000       0.186529         5.0757 
  50   0.0000       0.221773         6.0348 
  51   0.0000       0.226619         6.1666 
  52   0.0000       0.252838         6.8801 
  53   0.0000       0.282058         7.6752 
  54   0.0000       0.304872         8.2960 
  55   0.0000       0.322338         8.7713 
  56   0.0000       0.350176         9.5288 
  57   0.0000       0.388743        10.5782 
  58   0.0000       0.401393        10.9225 
  59   0.0000       0.415367        11.3027 
  60   0.0000       0.429368        11.6837 
  61   0.0000       0.451505        12.2861 
  62   0.0000       0.455912        12.4060 
  63   0.0000       0.472075        12.8458 
  64   0.0000       0.480352        13.0711 
  65   0.0000       0.492151        13.3921 
  66   0.0000       0.514000        13.9867 
  67   0.0000       0.520490        14.1633 
  68   0.0000       0.539402        14.6779 
  69   0.0000       0.542796        14.7702 
  70   0.0000       0.562107        15.2957 
  71   0.0000       0.572527        15.5793 
  72   0.0000       0.582250        15.8438 
  73   0.0000       0.607335        16.5264 
  74   0.0000       0.622212        16.9313 
  75   0.0000       0.643036        17.4979 
  76   0.0000       0.655430        17.8352 
  77   0.0000       0.665460        18.1081 
  78   0.0000       0.678440        18.4613 
  79   0.0000       0.684208        18.6182 
  80   0.0000       0.701640        19.0926 
  81   0.0000       0.735253        20.0073 
  82   0.0000       0.753471        20.5030 
  83   0.0000       0.772143        21.0111 
  84   0.0000       0.807899        21.9840 
  85   0.0000       0.822726        22.3875 
  86   0.0000       0.851848        23.1800 
  87   0.0000       0.861141        23.4328 
  88   0.0000       0.879606        23.9353 
  89   0.0000       0.894526        24.3413 
  90   0.0000       0.903172        24.5766 
  91   0.0000       0.919208        25.0129 
  92   0.0000       0.932916        25.3859 
  93   0.0000       0.947870        25.7929 
  94   0.0000       0.972902        26.4740 
  95   0.0000       0.988626        26.9019 
  96   0.0000       0.993749        27.0413 
  97   0.0000       1.007111        27.4049 
  98   0.0000       1.027367        27.9561 
  99   0.0000       1.030727        28.0475 
 100   0.0000       1.064727        28.9727 
 101   0.0000       1.072423        29.1821 
 102   0.0000       1.098288        29.8859 
 103   0.0000       1.127022        30.6678 
 104   0.0000       1.134591        30.8738 
 105   0.0000       1.154101        31.4047 
 106   0.0000       1.157525        31.4979 
 107   0.0000       1.191925        32.4339 
 108   0.0000       1.260486        34.2996 
 109   0.0000       1.286350        35.0034 
 110   0.0000       1.297544        35.3080 
 111   0.0000       1.327630        36.1266 
 112   0.0000       1.350106        36.7382 
 113   0.0000       1.357424        36.9374 
 114   0.0000       1.381789        37.6004 
 115   0.0000       1.395931        37.9852 
 116   0.0000       1.469772        39.9945 
 117   0.0000       1.478947        40.2442 
 118   0.0000       1.483170        40.3591 
 119   0.0000       1.486760        40.4568 
 120   0.0000       1.505932        40.9785 
 121   0.0000       1.534285        41.7500 
 122   0.0000       1.541426        41.9443 
 123   0.0000       1.568096        42.6701 
 124   0.0000       1.581435        43.0330 
 125   0.0000       1.612604        43.8812 
 126   0.0000       1.624917        44.2162 
 127   0.0000       1.630649        44.3722 
 128   0.0000       1.655869        45.0585 
 129   0.0000       1.672654        45.5152 
 130   0.0000       1.692405        46.0527 
 131   0.0000       1.702899        46.3382 
 132   0.0000       1.706178        46.4275 
 133   0.0000       1.709759        46.5249 
 134   0.0000       1.725203        46.9452 
 135   0.0000       1.758744        47.8579 
 136   0.0000       1.789288        48.6890 
 137   0.0000       1.807665        49.1891 
 138   0.0000       1.849765        50.3347 
 139   0.0000       1.879677        51.1486 
 140   0.0000       1.891873        51.4805 
 141   0.0000       1.901996        51.7559 
 142   0.0000       1.911870        52.0246 
 143   0.0000       1.930976        52.5445 
 144   0.0000       1.996787        54.3353 
 145   0.0000       2.037408        55.4407 
 146   0.0000       2.071436        56.3666 
 147   0.0000       2.106375        57.3174 
 148   0.0000       2.124324        57.8058 
 149   0.0000       2.160507        58.7904 
 150   0.0000       2.176331        59.2210 
 151   0.0000       2.210044        60.1384 
 152   0.0000       2.229713        60.6736 
 153   0.0000       2.248578        61.1869 
 154   0.0000       2.278064        61.9893 
 155   0.0000       2.292904        62.3931 
 156   0.0000       2.304691        62.7138 
 157   0.0000       2.347367        63.8751 
 158   0.0000       2.368099        64.4393 
 159   0.0000       2.385557        64.9143 
 160   0.0000       2.425807        66.0096 
 161   0.0000       2.471542        67.2541 
 162   0.0000       2.523258        68.6613 
 163   0.0000       2.569678        69.9245 
 164   0.0000       2.587144        70.3998 
 165   0.0000       2.619254        71.2735 
 166   0.0000       2.671390        72.6922 
 167   0.0000       2.681003        72.9538 
 168   0.0000       2.704008        73.5798 
 169   0.0000       2.718931        73.9859 
 170   0.0000       2.734238        74.4024 
 171   0.0000       2.752511        74.8996 
 172   0.0000       2.809044        76.4380 
 173   0.0000       2.877457        78.2996 
 174   0.0000       2.921231        79.4907 
 175   0.0000       2.978482        81.0486 
 176   0.0000       3.037889        82.6652 
 177   0.0000       3.093435        84.1767 
 178   0.0000       3.153447        85.8097 
 179   0.0000       3.262817        88.7858 
 180   0.0000       3.343226        90.9738 
 181   0.0000       3.425918        93.2240 
 182   0.0000       3.441131        93.6379 
 183   0.0000       3.479296        94.6765 
 184   0.0000       3.509021        95.4853 
-------
TIMINGS
-------

Total SCF time: 0 days 0 hours 0 min 23 sec 

Total time                  ....      23.974 sec
Sum of individual times     ....      23.618 sec  ( 98.5%)

Fock matrix formation       ....      21.949 sec  ( 91.6%)
  Split-RI-J                ....       3.731 sec  ( 17.0% of F)
  Chain of spheres X        ....      16.525 sec  ( 75.3% of F)
  COS-X 1 center corr.      ....       0.000 sec  (  0.0% of F)
  XC integration            ....       1.608 sec  (  7.3% of F)
    Basis function eval.    ....       0.490 sec  ( 30.5% of XC)
    Density eval.           ....       0.218 sec  ( 13.6% of XC)
    XC-Functional eval.     ....       0.058 sec  (  3.6% of XC)
    XC-Potential eval.      ....       0.424 sec  ( 26.4% of XC)
Diagonalization             ....       0.063 sec  (  0.3%)
Density matrix formation    ....       0.033 sec  (  0.1%)
Population analysis         ....       0.000 sec  (  0.0%)
Initial guess               ....       0.271 sec  (  1.1%)
Orbital Transformation      ....       0.000 sec  (  0.0%)
Orbital Orthonormalization  ....       0.000 sec  (  0.0%)
DIIS solution               ....       0.021 sec  (  0.1%)
SOSCF solution              ....       0.111 sec  (  0.5%)
Grid generation             ....       1.170 sec  (  4.9%)


-------------------------------------------------------------------------------
                          DFT DISPERSION CORRECTION                            
                                                                               
                              DFTD3 V3.1  Rev 1                                
                          USING Becke-Johnson damping                          
-------------------------------------------------------------------------------
The B3LYP functional is recognized
Active option DFTDOPT                   ...         4   

molecular C6(AA) [au] = 3640.267603 


            DFT-D V3
 parameters
 s6 scaling factor         :     1.0000 
 a1 scaling factor         :     0.3981 
 s8 scaling factor         :     1.9889 
 a2 scaling factor         :     4.4211 
 ad hoc parameters k1-k3   :    16.0000     1.3333    -4.0000 

 Edisp/kcal,au: -17.338142561286  -0.027630085964 
 E6   /kcal   :  -8.499452929 
 E8   /kcal   :  -8.838689632 
 % E8         :  50.978295978 

-------------------------   ----------------
Dispersion correction           -0.027630086
-------------------------   ----------------


-------------------------   --------------------
FINAL SINGLE POINT ENERGY      -510.427286868284
-------------------------   --------------------



           ************************************************************
           *        Program running with 6 parallel MPI-processes     *
           *              working on a common directory               *
           ************************************************************
------------------------------------------------------------------------------
                         ORCA SCF GRADIENT CALCULATION
------------------------------------------------------------------------------

Gradient of the Kohn-Sham DFT energy:
Kohn-Sham wavefunction type      ... RKS
Hartree-Fock exchange scaling    ...    0.200
Number of operators              ...    1
Number of atoms                  ...   19
Basis set dimensions             ...  185
Integral neglect threshold       ... 2.5e-11
Integral primitive cutoff        ... 2.5e-12

Nuclear repulsion gradient       ... done
One Electron Gradient            ... done
Pre-screening matrix             ... done
RI-J gradient                    ... done
COSX-gradient                    ... done
Exchange-correlation gradient    ... done
Dispersion correction            ... done

------------------
CARTESIAN GRADIENT
------------------

   1   C   :    0.006607203    0.000551169    0.001565820
   2   C   :    0.009399778   -0.014107631   -0.007554662
   3   N   :   -0.008640769    0.013687660    0.001710211
   4   N   :   -0.014427796   -0.011198208    0.000551516
   5   C   :   -0.001109299    0.010130621    0.001095664
   6   C   :   -0.000853753   -0.022754970    0.003251612
   7   O   :    0.004889404    0.016485015   -0.002355775
   8   N   :    0.016021765    0.007275282   -0.000874826
   9   C   :   -0.005683802   -0.001752337    0.000311619
  10   O   :    0.006837162   -0.002856774    0.000476690
  11   H   :   -0.004058599    0.005449047    0.000447461
  12   H   :   -0.006325174    0.002711410    0.001855335
  13   H   :    0.003178556    0.000202725    0.001695796
  14   H   :    0.003614159   -0.000434837    0.003052711
  15   H   :   -0.004161863   -0.000460001   -0.000343643
  16   H   :    0.004905447   -0.005819100   -0.000494838
  17   H   :    0.009594001    0.001748150   -0.000500750
  18   H   :   -0.028055470    0.000601293    0.000218008
  19   H   :    0.007783729    0.001470637   -0.000916044

Difference to translation invariance:
           :   -0.0004853209    0.0009291511    0.0031919053

Norm of the cartesian gradient     ...    0.0590005870
RMS gradient                       ...    0.0078148187
MAX gradient                       ...    0.0280554702

-------
TIMINGS
-------

Total SCF gradient time            ...        4.500 sec

One electron gradient       ....       0.100 sec  (  2.2%)
Prescreening matrices       ....       0.121 sec  (  2.7%)
RI-J Coulomb gradient       ....       0.719 sec  ( 16.0%)
COSX gradient               ....       2.041 sec  ( 45.4%)
XC gradient                 ....       1.087 sec  ( 24.1%)
------------------------------------------------------------------------------
                         ORCA GEOMETRY RELAXATION STEP
------------------------------------------------------------------------------

Reading the OPT-File                    .... done
Getting information on internals        .... done
Copying old internal coords+grads       .... done
Making the new internal coordinates     .... (new redundants).... done
Validating the new internal coordinates .... (new redundants).... done
Calculating the B-matrix                .... done
Calculating the G,G- and P matrices     .... done
Transforming gradient to internals      .... done
Projecting the internal gradient        .... done
Number of atoms                         ....  19
Number of internal coordinates          ....  79
Current Energy                          ....  -510.427286868 Eh
Current gradient norm                   ....     0.059000587 Eh/bohr
Maximum allowed component of the step   ....  0.300
Current trust radius                    ....  0.300
Evaluating the initial hessian          ....  (Almloef) done
Projecting the Hessian                  .... done
Forming the augmented Hessian           .... done
Diagonalizing the augmented Hessian     .... done
Last element of RFO vector              ....  0.965900120
Lowest eigenvalues of augmented Hessian:
 -0.009319377  0.012628197  0.012721733  0.025199404  0.027238050
Length of the computed step             ....  0.268055629
The final length of the internal step   ....  0.268055629
Converting the step to cartesian space:
 Initial RMS(Int)=    0.0301586145
Transforming coordinates:
 Iter   0:  RMS(Cart)=    0.0859090566 RMS(Int)=    0.7058139786
 Iter   1:  RMS(Cart)=    0.0013646000 RMS(Int)=    0.7069070914
 Iter   2:  RMS(Cart)=    0.0000435397 RMS(Int)=    0.0000227876
 Iter   3:  RMS(Cart)=    0.0000116222 RMS(Int)=    0.0000066374
 Iter   4:  RMS(Cart)=    0.0000054308 RMS(Int)=    0.0000032072
 Iter   5:  RMS(Cart)=    0.0000026427 RMS(Int)=    0.0000015673
 Iter   6:  RMS(Cart)=    0.0000012921 RMS(Int)=    0.0000007663
 Iter   7:  RMS(Cart)=    0.0000006318 RMS(Int)=    0.0000003747
 Iter   8:  RMS(Cart)=    0.0000003090 RMS(Int)=    0.0000001832
 Iter   9:  RMS(Cart)=    0.0000001511 RMS(Int)=    0.0000000896
 Iter  10:  RMS(Cart)=    0.0000000739 RMS(Int)=    0.0000000438
done
Storing new coordinates                 .... done

                                .--------------------.
          ----------------------|Geometry convergence|-------------------------
          Item                value                   Tolerance       Converged
          ---------------------------------------------------------------------
          RMS gradient        0.0063600748            0.0020000000      NO
          MAX gradient        0.0333904539            0.0030000000      NO
          RMS step            0.0301586145            0.0200000000      NO
          MAX step            0.1476891795            0.0300000000      NO
          ........................................................
          Max(Bonds)      0.0782      Max(Angles)    2.62
          Max(Dihed)        3.39      Max(Improp)    0.00
          ---------------------------------------------------------------------

The optimization has not yet converged - more geometry cycles are needed


    ---------------------------------------------------------------------------
                         Redundant Internal Coordinates
                            (Angstroem and degrees)

        Definition                    Value    dE/dq     Step     New-Value
    ----------------------------------------------------------------------------
     1. B(C   1,C   0)                1.4918  0.002960 -0.0036    1.4883   
     2. B(N   2,C   1)                1.3600 -0.010495  0.0087    1.3687   
     3. B(N   3,C   1)                1.2967 -0.004270  0.0034    1.3001   
     4. B(C   4,C   0)                1.3383  0.002964 -0.0021    1.3362   
     5. B(O   6,C   5)                1.2236  0.017161 -0.0087    1.2149   
     6. B(N   7,C   5)                1.3659 -0.011004  0.0094    1.3752   
     7. B(C   8,N   7)                1.3655 -0.000245  0.0004    1.3658   
     8. B(O   9,C   8)                1.2259  0.001669 -0.0012    1.2247   
     9. B(H  10,C   0)                1.0858 -0.006680  0.0094    1.0952   
    10. B(H  11,N   2)                1.0111 -0.004359  0.0052    1.0164   
    11. B(H  12,N   2)                1.0239 -0.008331  0.0092    1.0331   
    12. B(H  12,O   9)                1.8314 -0.005509  0.0782    1.9096   
    13. B(H  13,N   3)                1.0247  0.001762 -0.0022    1.0225   
    14. B(H  14,C   4)                1.0866 -0.004126  0.0058    1.0925   
    15. B(H  15,C   4)                1.0827 -0.007423  0.0104    1.0930   
    16. B(H  16,C   5)                1.1025 -0.009772  0.0146    1.1171   
    17. B(H  17,N   3)                1.6721 -0.005273  0.0688    1.7410   
    18. B(H  17,N   7)                1.0262 -0.033390  0.0435    1.0697   
    19. B(H  18,C   8)                1.1021 -0.007842  0.0117    1.1138   
    20. A(C   1,C   0,H  10)          115.29 -0.001243    0.20    115.49   
    21. A(C   4,C   0,H  10)          119.41  0.000609   -0.10    119.32   
    22. A(C   1,C   0,C   4)          125.29  0.000624   -0.09    125.20   
    23. A(C   0,C   1,N   3)          124.07 -0.006546    0.81    124.88   
    24. A(C   0,C   1,N   2)          119.55  0.018476   -2.62    116.93   
    25. A(N   2,C   1,N   3)          116.38 -0.011928    1.81    118.19   
    26. A(H  11,N   2,H  12)          111.32 -0.004413    1.39    112.71   
    27. A(C   1,N   2,H  12)          113.96  0.002886   -0.08    113.88   
    28. A(C   1,N   2,H  11)          117.38  0.000855    0.06    117.43   
    29. A(C   1,N   3,H  13)          110.32 -0.008480    1.18    111.50   
    30. A(H  13,N   3,H  17)          119.29 -0.002211    0.40    119.69   
    31. A(C   1,N   3,H  17)          130.39  0.010686   -1.58    128.81   
    32. A(C   0,C   4,H  15)          123.85  0.003213   -0.50    123.35   
    33. A(C   0,C   4,H  14)          119.80 -0.002307    0.34    120.14   
    34. A(H  14,C   4,H  15)          116.35 -0.000907    0.16    116.51   
    35. A(O   6,C   5,N   7)          124.64  0.003387   -0.44    124.20   
    36. A(N   7,C   5,H  16)          113.48 -0.001154    0.14    113.62   
    37. A(O   6,C   5,H  16)          121.89 -0.002233    0.29    122.18   
    38. A(C   5,N   7,C   8)          125.41  0.010687   -1.61    123.80   
    39. A(C   8,N   7,H  17)          117.08 -0.001652    0.44    117.52   
    40. A(C   5,N   7,H  17)          117.51 -0.009035    1.18    118.69   
    41. A(N   7,C   8,O   9)          124.04 -0.002661    0.37    124.41   
    42. A(O   9,C   8,H  18)          122.16  0.002936   -0.42    121.74   
    43. A(N   7,C   8,H  18)          113.80 -0.000274    0.05    113.86   
    44. A(C   8,O   9,H  12)          120.18 -0.004592    0.71    120.89   
    45. L(N   2,H  12,O   9,C   1, 2) 178.60 -0.000636    0.06    178.66   
    46. L(N   2,H  12,O   9,C   1, 1) 179.94  0.003155   -1.07    178.87   
    47. A(N   3,H  17,N   7)          173.51  0.004804   -0.60    172.92   
    48. D(N   3,C   1,C   0,H  10)   -178.75 -0.000693    1.08   -177.67   
    49. D(N   2,C   1,C   0,C   4)    179.97  0.000332   -0.13    179.84   
    50. D(N   3,C   1,C   0,C   4)      0.04 -0.001301    2.04      2.08   
    51. D(N   2,C   1,C   0,H  10)      1.18  0.000939   -1.10      0.08   
    52. D(H  12,N   2,C   1,C   0)    164.82 -0.000397    0.77    165.59   
    53. D(H  12,N   2,C   1,N   3)    -15.24  0.001114   -1.24    -16.48   
    54. D(H  11,N   2,C   1,C   0)     32.12  0.002354   -1.38     30.74   
    55. D(H  11,N   2,C   1,N   3)   -147.94  0.003865   -3.39   -151.33   
    56. D(H  17,N   3,C   1,N   2)      1.37 -0.001432    2.28      3.65   
    57. D(H  17,N   3,C   1,C   0)   -178.70  0.000172    0.17   -178.53   
    58. D(H  13,N   3,C   1,N   2)   -178.94 -0.002529    3.22   -175.72   
    59. D(H  13,N   3,C   1,C   0)      1.00 -0.000925    1.10      2.10   
    60. D(H  15,C   4,C   0,C   1)      0.69  0.000262   -0.43      0.26   
    61. D(H  14,C   4,C   0,H  10)     -0.48  0.000015    0.11     -0.36   
    62. D(H  14,C   4,C   0,C   1)   -179.22  0.000666   -0.89   -180.11   
    63. D(H  15,C   4,C   0,H  10)    179.43 -0.000389    0.58    180.00   
    64. D(H  17,N   7,C   5,H  16)    179.83  0.000085   -0.09    179.74   
    65. D(H  17,N   7,C   5,O   6)     -0.31  0.000029   -0.01     -0.31   
    66. D(C   8,N   7,C   5,H  16)      0.16 -0.000025    0.00      0.16   
    67. D(C   8,N   7,C   5,O   6)   -179.97 -0.000081    0.08   -179.89   
    68. D(H  18,C   8,N   7,H  17)   -179.72  0.000342   -0.01   -179.73   
    69. D(H  18,C   8,N   7,C   5)     -0.05  0.000430   -0.09     -0.14   
    70. D(O   9,C   8,N   7,H  17)      0.32  0.000131   -0.02      0.31   
    71. D(O   9,C   8,N   7,C   5)    179.99  0.000219   -0.10    179.89   
    72. D(H  12,O   9,C   8,H  18)    169.64 -0.000282    0.56    170.20   
    73. D(H  12,O   9,C   8,N   7)    -10.40 -0.000056    0.57     -9.84   
    74. D(C   8,O   9,N   2,H  11)    161.46  0.001027    1.00    162.46   
    75. D(C   8,O   9,N   2,C   1)     25.53  0.000770   -0.27     25.27   
    76. D(N   3,H  17,N   7,C   5)    156.27  0.000744   -0.04    156.23   
    77. D(N   7,H  17,N   3,H  13)   -142.79  0.001661   -2.58   -145.37   
    78. D(N   7,H  17,N   3,C   1)     36.88  0.000471   -1.57     35.31   
    79. D(N   3,H  17,N   7,C   8)    -24.03  0.000890   -0.13    -24.16   
    ----------------------------------------------------------------------------

         *************************************************************
         *                GEOMETRY OPTIMIZATION CYCLE   2            *
         *************************************************************
---------------------------------
CARTESIAN COORDINATES (ANGSTROEM)
---------------------------------
  C      3.140300   -0.544423   -0.037890
  C      1.653407   -0.589438   -0.082819
  N      1.075322   -1.820319   -0.238104
  N      0.876332    0.451450   -0.026876
  C      3.873369    0.563626    0.104757
  C     -2.677019    1.590891   -0.101058
  O     -2.206708    2.697009   -0.277949
  N     -1.928753    0.444116    0.026517
  C     -2.466292   -0.795945    0.223118
  O     -1.810562   -1.824008    0.336366
  H      3.644248   -1.511869   -0.135971
  H      1.567891   -2.621130    0.148035
  H      0.063551   -1.836410   -0.029759
  H      1.415165    1.319245    0.018509
  H      4.963754    0.500691    0.128907
  H      3.439856    1.561665    0.207982
  H     -3.778034    1.417612   -0.025990
  H     -0.863419    0.516304   -0.036923
  H     -3.578907   -0.801766    0.274948

----------------------------
CARTESIAN COORDINATES (A.U.)
----------------------------
  NO LB      ZA    FRAG     MASS         X           Y           Z
   0 C     6.0000    0    12.011    5.934307   -1.028810   -0.071601
   1 C     6.0000    0    12.011    3.124486   -1.113877   -0.156505
   2 N     7.0000    0    14.007    2.032064   -3.439905   -0.449951
   3 N     7.0000    0    14.007    1.656028    0.853117   -0.050788
   4 C     6.0000    0    12.011    7.319607    1.065099    0.197962
   5 C     6.0000    0    12.011   -5.058832    3.006349   -0.190971
   6 O     8.0000    0    15.999   -4.170074    5.096609   -0.525247
   7 N     7.0000    0    14.007   -3.644815    0.839258    0.050109
   8 C     6.0000    0    12.011   -4.660616   -1.504119    0.421633
   9 O     8.0000    0    15.999   -3.421466   -3.446876    0.635639
  10 H     1.0000    0     1.008    6.886631   -2.857019   -0.256949
  11 H     1.0000    0     1.008    2.962884   -4.953219    0.279746
  12 H     1.0000    0     1.008    0.120093   -3.470312   -0.056236
  13 H     1.0000    0     1.008    2.674275    2.493012    0.034977
  14 H     1.0000    0     1.008    9.380135    0.946169    0.243599
  15 H     1.0000    0     1.008    6.500386    2.951119    0.393029
  16 H     1.0000    0     1.008   -7.139450    2.678899   -0.049114
  17 H     1.0000    0     1.008   -1.631626    0.975673   -0.069774
  18 H     1.0000    0     1.008   -6.763155   -1.515119    0.519576

--------------------------------
INTERNAL COORDINATES (ANGSTROEM)
--------------------------------
 C      0   0   0     0.000000000000     0.00000000     0.00000000
 C      1   0   0     1.488252371661     0.00000000     0.00000000
 N      2   1   0     1.368708952838   116.91051997     0.00000000
 N      2   1   3     1.300162952768   124.86290212   182.21294610
 C      1   2   3     1.336230473626   125.19868934   179.85214099
 C      4   2   1     3.732309194558   144.34811280   178.42818125
 O      6   4   2     1.214898713519    84.96825311   194.33631080
 N      6   4   2     1.375234528226    39.24656546    12.85466960
 C      8   6   4     1.365779335127   123.80220017   178.32396429
 O      9   8   6     1.224630318525   124.38738865   179.90030667
 H      1   2   3     1.095233268004   115.48575480     0.09744922
 H      3   2   1     1.016378662821   117.43706373    30.71787239
 H      3   2   1     1.033125100180   113.87576232   165.55456581
 H      4   2   1     1.022481895710   111.49437047     2.06759775
 H      5   1   2     1.092466346622   120.14258778   179.88858815
 H      5   1   2     1.093009651779   123.34462106     0.25669209
 H      6   4   2     1.117092791797   152.83035331    16.54358952
 H      8   6   4     1.069659321883   118.69343722   357.90343041
 H      9   8   6     1.113837539401   113.86531341   359.85750639

---------------------------
INTERNAL COORDINATES (A.U.)
---------------------------
 C      0   0   0     0.000000000000     0.00000000     0.00000000
 C      1   0   0     2.812389400598     0.00000000     0.00000000
 N      2   1   0     2.586485077910   116.91051997     0.00000000
 N      2   1   3     2.456951910202   124.86290212   182.21294610
 C      1   2   3     2.525109646954   125.19868934   179.85214099
 C      4   2   1     7.053042224831   144.34811280   178.42818125
 O      6   4   2     2.295825849003    84.96825311   194.33631080
 N      6   4   2     2.598816628259    39.24656546    12.85466960
 C      8   6   4     2.580948902759   123.80220017   178.32396429
 O      9   8   6     2.314215917308   124.38738865   179.90030667
 H      1   2   3     2.069690929287   115.48575480     0.09744922
 H      3   2   1     1.920677321093   117.43706373    30.71787239
 H      3   2   1     1.952323501419   113.87576232   165.55456581
 H      4   2   1     1.932210759784   111.49437047     2.06759775
 H      5   1   2     2.064462205640   120.14258778   179.88858815
 H      5   1   2     2.065488903595   123.34462106     0.25669209
 H      6   4   2     2.110999442675   152.83035331    16.54358952
 H      8   6   4     2.021363174955   118.69343722   357.90343041
 H      9   8   6     2.104847907149   113.86531341   359.85750639



           ************************************************************
           *        Program running with 6 parallel MPI-processes     *
           *              working on a common directory               *
           ************************************************************
 One Electron integrals                  ... done
 Pre-screening matrix                    ... done


           ************************************************************
           *        Program running with 6 parallel MPI-processes     *
           *              working on a common directory               *
           ************************************************************

Diagonalization of the overlap matrix:
Smallest eigenvalue                        ... 1.967e-03
Time for diagonalization                   ...    0.007 sec
Threshold for overlap eigenvalues          ... 1.000e-08
Number of eigenvalues below threshold      ... 0
Time for construction of square roots      ...    0.003 sec
Total time needed                          ...    0.010 sec

-------------------
DFT GRID GENERATION
-------------------

General Integration Accuracy     IntAcc      ...  4.340
Radial Grid Type                 RadialGrid  ... Gauss-Chebyshev
Angular Grid (max. acc.)         AngularGrid ... Lebedev-110
Angular grid pruning method      GridPruning ... 3 (G Style)
Weight generation scheme         WeightScheme... Becke
Basis function cutoff            BFCut       ...    1.0000e-11
Integration weight cutoff        WCut        ...    1.0000e-14
Grids for H and He will be reduced by one unit

# of grid points (after initial pruning)     ...  23964 (   0.0 sec)
# of grid points (after weights+screening)   ...  22361 (   0.0 sec)
nearest neighbour list constructed           ...    0.0 sec
Grid point re-assignment to atoms done       ...    0.0 sec
Grid point division into batches done        ...    0.0 sec
Reduced shell lists constructed in    0.1 sec

Total number of grid points                  ...    22361
Total number of batches                      ...      359
Average number of points per batch           ...       62
Average number of grid points per atom       ...     1177
Average number of shells per batch           ...    64.07 (73.64%)
Average number of basis functions per batch  ...   131.54 (71.10%)
Average number of large shells per batch     ...    48.89 (76.31%)
Average number of large basis fcns per batch ...    99.80 (75.87%)
Maximum spatial batch extension              ...   6.72,  8.54, 21.93 au
Average spatial batch extension              ...   0.31,  0.33,  0.57 au

Time for grid setup =    0.111 sec

--------------------
COSX GRID GENERATION
--------------------

General Integration Accuracy     IntAcc      ...  3.340
Radial Grid Type                 RadialGrid  ... Gauss-Chebyshev
Angular Grid (max. acc.)         AngularGrid ... Lebedev-50
Angular grid pruning method      GridPruning ... 3 (G Style)
Weight generation scheme         WeightScheme... Becke
Basis function cutoff            BFCut       ...    1.0000e-11
Integration weight cutoff        WCut        ...    1.0000e-14
Grids for H and He will be reduced by one unit

# of grid points (after initial pruning)     ...   8638 (   0.0 sec)
# of grid points (after weights+screening)   ...   8103 (   0.0 sec)
nearest neighbour list constructed           ...    0.0 sec
Grid point re-assignment to atoms done       ...    0.0 sec
Grid point division into batches done        ...    0.0 sec
Reduced shell lists constructed in    0.0 sec

Total number of grid points                  ...     8103
Total number of batches                      ...      136
Average number of points per batch           ...       59
Average number of grid points per atom       ...      426
Average number of shells per batch           ...    64.17 (73.75%)
Average number of basis functions per batch  ...   132.50 (71.62%)
Average number of large shells per batch     ...    48.79 (76.04%)
Average number of large basis fcns per batch ...    99.46 (75.06%)
Maximum spatial batch extension              ...   3.81,  8.39, 17.61 au
Average spatial batch extension              ...   0.39,  0.43,  0.97 au

Overlap Fitting                  UseSFitting ... on
Constructing numerical overlap ... done (      0.0 sec)
Inverting numerical overlap    ... done (      0.0 sec)
Obtaining analytic overlap     ... done (      0.0 sec)
Final contraction and storage  ... done (      0.0 sec)


General Integration Accuracy     IntAcc      ...  3.670
Radial Grid Type                 RadialGrid  ... Gauss-Chebyshev
Angular Grid (max. acc.)         AngularGrid ... Lebedev-50
Angular grid pruning method      GridPruning ... 3 (G Style)
Weight generation scheme         WeightScheme... Becke
Basis function cutoff            BFCut       ...    1.0000e-11
Integration weight cutoff        WCut        ...    1.0000e-14
Grids for H and He will be reduced by one unit

# of grid points (after initial pruning)     ...  11032 (   0.0 sec)
# of grid points (after weights+screening)   ...  10326 (   0.0 sec)
nearest neighbour list constructed           ...    0.0 sec
Grid point re-assignment to atoms done       ...    0.0 sec
Grid point division into batches done        ...    0.0 sec
Reduced shell lists constructed in    0.0 sec

Total number of grid points                  ...    10326
Total number of batches                      ...      172
Average number of points per batch           ...       60
Average number of grid points per atom       ...      543
Average number of shells per batch           ...    65.80 (75.63%)
Average number of basis functions per batch  ...   136.33 (73.69%)
Average number of large shells per batch     ...    49.77 (75.63%)
Average number of large basis fcns per batch ...   101.43 (74.40%)
Maximum spatial batch extension              ...   4.11,  5.02, 19.15 au
Average spatial batch extension              ...   0.38,  0.38,  0.79 au

Overlap Fitting                  UseSFitting ... on
Constructing numerical overlap ... done (      0.0 sec)
Inverting numerical overlap    ... done (      0.0 sec)
Obtaining analytic overlap     ... done (      0.0 sec)
Final contraction and storage  ... done (      0.0 sec)


General Integration Accuracy     IntAcc      ...  4.010
Radial Grid Type                 RadialGrid  ... Gauss-Chebyshev
Angular Grid (max. acc.)         AngularGrid ... Lebedev-110
Angular grid pruning method      GridPruning ... 3 (G Style)
Weight generation scheme         WeightScheme... Becke
Basis function cutoff            BFCut       ...    1.0000e-11
Integration weight cutoff        WCut        ...    1.0000e-14
Grids for H and He will be reduced by one unit

# of grid points (after initial pruning)     ...  20600 (   0.0 sec)
# of grid points (after weights+screening)   ...  19253 (   0.0 sec)
nearest neighbour list constructed           ...    0.0 sec
Grid point re-assignment to atoms done       ...    0.0 sec
Grid point division into batches done        ...    0.0 sec
Reduced shell lists constructed in    0.0 sec

Total number of grid points                  ...    19253
Total number of batches                      ...      311
Average number of points per batch           ...       61
Average number of grid points per atom       ...     1013
Average number of shells per batch           ...    64.28 (73.89%)
Average number of basis functions per batch  ...   132.40 (71.57%)
Average number of large shells per batch     ...    49.06 (76.31%)
Average number of large basis fcns per batch ...    99.96 (75.50%)
[...]
Angular grid pruning method      GridPruning ... 3 (G Style)
Weight generation scheme         WeightScheme... Becke
Basis function cutoff            BFCut       ...    1.0000e-11
Integration weight cutoff        WCut        ...    1.0000e-14
Grids for H and He will be reduced by one unit

# of grid points (after initial pruning)     ...  20600 (   0.0 sec)
# of grid points (after weights+screening)   ...  19245 (   0.0 sec)
nearest neighbour list constructed           ...    0.0 sec
Grid point re-assignment to atoms done       ...    0.0 sec
Grid point division into batches done        ...    0.0 sec
Reduced shell lists constructed in    0.0 sec

Total number of grid points                  ...    19245
Total number of batches                      ...      311
Average number of points per batch           ...       61
Average number of grid points per atom       ...     1013
Average number of shells per batch           ...    64.38 (74.00%)
Average number of basis functions per batch  ...   132.30 (71.51%)
Average number of large shells per batch     ...    49.40 (76.73%)
Average number of large basis fcns per batch ...   101.09 (76.41%)
Maximum spatial batch extension              ...   4.21,  6.94, 15.33 au
Average spatial batch extension              ...   0.31,  0.32,  0.47 au

Overlap Fitting                  UseSFitting ... on
Constructing numerical overlap ... done (      0.0 sec)
Inverting numerical overlap    ... done (      0.0 sec)
Obtaining analytic overlap     ... done (      0.0 sec)
Final contraction and storage  ... done (      0.0 sec)

Time for X-Grid setup             =    0.220 sec
--------------
SCF ITERATIONS
--------------
ITER       Energy         Delta-E        Max-DP      RMS-DP      [F,P]     Damp
               ***  Starting incremental Fock matrix formation  ***
                      *** Initiating the SOSCF procedure ***
                      *** Re-Reading the Fockian *** 
                      *** Removing any level shift *** 
ITER      Energy       Delta-E        Grad      Rot      Max-DP    RMS-DP
  0   -510.40747070 -510.4074707043  0.000627  0.000627  0.001907  0.000063
               *** Restarting incremental Fock matrix formation ***
  1   -510.40753190  -0.0000611912  0.000303  0.000872  0.000863  0.000028
  2   -510.40753916  -0.0000072681  0.000116  0.000374  0.000574  0.000013
  3   -510.40753834   0.0000008222  0.000281  0.000268  0.000409  0.000008
  4   -510.40753952  -0.0000011740  0.000016  0.000035  0.000053  0.000001
  5   -510.40753951   0.0000000058  0.000020  0.000024  0.000033  0.000001
  6   -510.40753952  -0.0000000117  0.000005  0.000011  0.000019  0.000000
                 **** Energy Check signals convergence ****
              ***Rediagonalizing the Fockian in SOSCF/NRSCF***

               *****************************************************
               *                     SUCCESS                       *
               *           SCF CONVERGED AFTER   7 CYCLES          *
               *****************************************************

Setting up the final grid:

General Integration Accuracy     IntAcc      ...  4.670
Radial Grid Type                 RadialGrid  ... Gauss-Chebyshev
Angular Grid (max. acc.)         AngularGrid ... Lebedev-302
Angular grid pruning method      GridPruning ... 3 (G Style)
Weight generation scheme         WeightScheme... Becke
Basis function cutoff            BFCut       ...    1.0000e-11
Integration weight cutoff        WCut        ...    1.0000e-14
Grids for H and He will be reduced by one unit

# of grid points (after initial pruning)     ...  92666 (   0.0 sec)
# of grid points (after weights+screening)   ...  85194 (   0.1 sec)
nearest neighbour list constructed           ...    0.0 sec
Grid point re-assignment to atoms done       ...    0.0 sec
Grid point division into batches done        ...    0.3 sec
Reduced shell lists constructed in    0.4 sec

Total number of grid points                  ...    85194
Total number of batches                      ...     1343
Average number of points per batch           ...       63
Average number of grid points per atom       ...     4484
Average number of shells per batch           ...    62.64 (72.00%)
Average number of basis functions per batch  ...   128.61 (69.52%)
Average number of large shells per batch     ...    46.79 (74.69%)
Average number of large basis fcns per batch ...    95.38 (74.16%)
Maximum spatial batch extension              ...   5.21, 11.23, 12.47 au
Average spatial batch extension              ...   0.21,  0.22,  0.25 au

Final grid set up in    0.4 sec
Final integration                            ... done (   0.2 sec)
Change in XC energy                          ...     0.000046409
Integrated number of electrons               ...    75.999909598
Previous integrated no of electrons          ...    76.004446412
Old exchange energy                            =    -13.068749026 Eh
New exchange energy                            =    -13.068313772 Eh
Exchange energy change after final integration =      0.000435255 Eh
Total energy after final integration           =   -510.407057862 Eh
Final COS-X integration done in                =     1.397 sec

----------------
TOTAL SCF ENERGY
----------------

Total Energy       :         -510.40705786 Eh          -13888.88214 eV

Components:
Nuclear Repulsion  :          491.95478255 Eh           13386.77020 eV
Electronic Energy  :        -1002.36184041 Eh          -27275.65234 eV
One Electron Energy:        -1669.90603438 Eh          -45440.45334 eV
Two Electron Energy:          667.54419397 Eh           18164.80100 eV

Virial components:
Potential Energy   :        -1017.73464145 Eh          -27693.96753 eV
Kinetic Energy     :          507.32758358 Eh           13805.08539 eV
Virial Ratio       :            2.00606999


DFT components:
N(Alpha)           :       37.999954799246 electrons
N(Beta)            :       37.999954799246 electrons
N(Total)           :       75.999909598491 electrons
E(X)               :      -51.988310874752 Eh       
E(C)               :       -3.062874592474 Eh       
E(XC)              :      -55.051185467225 Eh       

---------------
SCF CONVERGENCE
---------------

  Last Energy change         ...   -4.0309e-09  Tolerance :   1.0000e-08
  Last MAX-Density change    ...    1.8859e-13  Tolerance :   1.0000e-07
  Last RMS-Density change    ...    1.0371e-15  Tolerance :   5.0000e-09
  Last Orbital Gradient      ...    6.0240e-06  Tolerance :   1.0000e-05
  Last Orbital Rotation      ...    7.5038e-06  Tolerance :   1.0000e-05

             **** THE GBW FILE WAS UPDATED (AT-v/e/frag_18_c00001.gbw) ****
             **** DENSITY FILE WAS UPDATED (AT-v/e/frag_18_c00001.scfp.tmp) ****
             **** ENERGY FILE WAS UPDATED (AT-v/e/frag_18_c00001.en.tmp) ****
----------------
ORBITAL ENERGIES
----------------

  NO   OCC          E(Eh)            E(eV) 
   0   2.0000     -19.135005      -520.6900 
   1   2.0000     -19.124478      -520.4035 
   2   2.0000     -14.358568      -390.7165 
   3   2.0000     -14.338760      -390.1775 
   4   2.0000     -14.299305      -389.1039 
   5   2.0000     -10.304098      -280.3888 
   6   2.0000     -10.296176      -280.1732 
   7   2.0000     -10.269793      -279.4553 
   8   2.0000     -10.213647      -277.9275 
   9   2.0000     -10.211253      -277.8623 
  10   2.0000      -1.057857       -28.7858 
  11   2.0000      -1.042164       -28.3587 
  12   2.0000      -0.950626       -25.8679 
  13   2.0000      -0.927130       -25.2285 
  14   2.0000      -0.852444       -23.1962 
  15   2.0000      -0.786393       -21.3989 
  16   2.0000      -0.650314       -17.6959 
  17   2.0000      -0.646228       -17.5848 
  18   2.0000      -0.623816       -16.9749 
  19   2.0000      -0.572891       -15.5892 
  20   2.0000      -0.530696       -14.4410 
  21   2.0000      -0.517456       -14.0807 
  22   2.0000      -0.502049       -13.6615 
  23   2.0000      -0.474333       -12.9073 
  24   2.0000      -0.459222       -12.4961 
  25   2.0000      -0.439478       -11.9588 
  26   2.0000      -0.437124       -11.8947 
  27   2.0000      -0.431283       -11.7358 
  28   2.0000      -0.419728       -11.4214 
  29   2.0000      -0.389879       -10.6091 
  30   2.0000      -0.387769       -10.5517 
  31   2.0000      -0.381395       -10.3783 
  32   2.0000      -0.301255        -8.1976 
  33   2.0000      -0.288308        -7.8453 
  34   2.0000      -0.278585        -7.5807 
  35   2.0000      -0.269325        -7.3287 
  36   2.0000      -0.255162        -6.9433 
  37   2.0000      -0.241021        -6.5585 
  38   0.0000      -0.042876        -1.1667 
  39   0.0000      -0.023636        -0.6432 
  40   0.0000       0.041812         1.1378 
  41   0.0000       0.055559         1.5118 
  42   0.0000       0.067228         1.8294 
  43   0.0000       0.072402         1.9701 
  44   0.0000       0.075816         2.0631 
  45   0.0000       0.101613         2.7650 
  46   0.0000       0.126498         3.4422 
  47   0.0000       0.141197         3.8422 
  48   0.0000       0.157673         4.2905 
  49   0.0000       0.177791         4.8379 
  50   0.0000       0.212898         5.7932 
  51   0.0000       0.227721         6.1966 
  52   0.0000       0.251478         6.8431 
  53   0.0000       0.285587         7.7712 
  54   0.0000       0.298965         8.1352 
  55   0.0000       0.315186         8.5766 
  56   0.0000       0.352967         9.6047 
  57   0.0000       0.370554        10.0833 
  58   0.0000       0.389709        10.6045 
  59   0.0000       0.418773        11.3954 
  60   0.0000       0.426263        11.5992 
  61   0.0000       0.447524        12.1777 
  62   0.0000       0.454682        12.3725 
  63   0.0000       0.462815        12.5938 
  64   0.0000       0.478045        13.0083 
  65   0.0000       0.493435        13.4270 
  66   0.0000       0.516231        14.0474 
  67   0.0000       0.519582        14.1386 
  68   0.0000       0.521867        14.2007 
  69   0.0000       0.546244        14.8641 
  70   0.0000       0.560709        15.2577 
  71   0.0000       0.564282        15.3549 
  72   0.0000       0.583591        15.8803 
  73   0.0000       0.606574        16.5057 
  74   0.0000       0.625967        17.0334 
  75   0.0000       0.641209        17.4482 
  76   0.0000       0.651192        17.7198 
  77   0.0000       0.663006        18.0413 
  78   0.0000       0.677821        18.4444 
  79   0.0000       0.681774        18.5520 
  80   0.0000       0.705836        19.2068 
  81   0.0000       0.721270        19.6267 
  82   0.0000       0.739865        20.1327 
  83   0.0000       0.764105        20.7924 
  84   0.0000       0.783022        21.3071 
  85   0.0000       0.803847        21.8738 
  86   0.0000       0.852680        23.2026 
  87   0.0000       0.866213        23.5709 
  88   0.0000       0.871056        23.7026 
  89   0.0000       0.879800        23.9406 
  90   0.0000       0.891608        24.2619 
  91   0.0000       0.935362        25.4525 
  92   0.0000       0.946956        25.7680 
  93   0.0000       0.959080        26.0979 
  94   0.0000       0.973351        26.4862 
  95   0.0000       0.987222        26.8637 
  96   0.0000       0.991710        26.9858 
  97   0.0000       1.012891        27.5622 
  98   0.0000       1.020844        27.7786 
  99   0.0000       1.055245        28.7147 
 100   0.0000       1.058731        28.8095 
 101   0.0000       1.073257        29.2048 
 102   0.0000       1.100588        29.9485 
 103   0.0000       1.116586        30.3839 
 104   0.0000       1.135421        30.8964 
 105   0.0000       1.144020        31.1304 
 106   0.0000       1.168248        31.7896 
 107   0.0000       1.201804        32.7027 
 108   0.0000       1.243756        33.8443 
 109   0.0000       1.279982        34.8301 
 110   0.0000       1.292897        35.1815 
 111   0.0000       1.304119        35.4869 
 112   0.0000       1.337771        36.4026 
 113   0.0000       1.353119        36.8202 
 114   0.0000       1.362713        37.0813 
 115   0.0000       1.379042        37.5256 
 116   0.0000       1.459450        39.7136 
 117   0.0000       1.479612        40.2623 
 118   0.0000       1.484122        40.3850 
 119   0.0000       1.496893        40.7325 
 120   0.0000       1.520093        41.3638 
 121   0.0000       1.531484        41.6738 
 122   0.0000       1.535637        41.7868 
 123   0.0000       1.559776        42.4437 
 124   0.0000       1.568900        42.6919 
 125   0.0000       1.603309        43.6282 
 126   0.0000       1.615724        43.9661 
 127   0.0000       1.627195        44.2782 
 128   0.0000       1.647978        44.8437 
 129   0.0000       1.672205        45.5030 
 130   0.0000       1.681050        45.7437 
 131   0.0000       1.690765        46.0080 
 132   0.0000       1.706352        46.4322 
 133   0.0000       1.713257        46.6201 
 134   0.0000       1.728368        47.0313 
 135   0.0000       1.762176        47.9512 
 136   0.0000       1.784743        48.5653 
 137   0.0000       1.800252        48.9873 
 138   0.0000       1.837957        50.0134 
 139   0.0000       1.860435        50.6250 
 140   0.0000       1.884792        51.2878 
 141   0.0000       1.898898        51.6716 
 142   0.0000       1.928559        52.4788 
 143   0.0000       1.931449        52.5574 
 144   0.0000       1.988250        54.1030 
 145   0.0000       2.033253        55.3276 
 146   0.0000       2.069171        56.3050 
 147   0.0000       2.087133        56.7938 
 148   0.0000       2.113018        57.4982 
 149   0.0000       2.140453        58.2447 
 150   0.0000       2.156112        58.6708 
 151   0.0000       2.203484        59.9599 
 152   0.0000       2.214620        60.2629 
 153   0.0000       2.233097        60.7656 
 154   0.0000       2.259048        61.4718 
 155   0.0000       2.276883        61.9571 
 156   0.0000       2.310498        62.8718 
 157   0.0000       2.319533        63.1177 
 158   0.0000       2.374492        64.6132 
 159   0.0000       2.379933        64.7613 
 160   0.0000       2.406569        65.4861 
 161   0.0000       2.453018        66.7500 
 162   0.0000       2.500299        68.0366 
 163   0.0000       2.529466        68.8303 
 164   0.0000       2.555886        69.5492 
 165   0.0000       2.602659        70.8220 
 166   0.0000       2.651435        72.1492 
 167   0.0000       2.659518        72.3692 
 168   0.0000       2.683143        73.0120 
 169   0.0000       2.703003        73.5525 
 170   0.0000       2.730936        74.3126 
 171   0.0000       2.735524        74.4374 
 172   0.0000       2.798437        76.1494 
 173   0.0000       2.858428        77.7818 
 174   0.0000       2.911004        79.2124 
 175   0.0000       2.936907        79.9173 
 176   0.0000       3.048167        82.9448 
 177   0.0000       3.098532        84.3154 
 178   0.0000       3.134354        85.2901 
 179   0.0000       3.262766        88.7844 
 180   0.0000       3.315201        90.2112 
 181   0.0000       3.415267        92.9341 
 182   0.0000       3.449325        93.8609 
 183   0.0000       3.476597        94.6030 
 184   0.0000       3.504227        95.3549 
-------
TIMINGS
-------

Total SCF time: 0 days 0 hours 0 min 9 sec 

Total time                  ....       9.486 sec
Sum of individual times     ....       9.432 sec  ( 99.4%)

Fock matrix formation       ....       8.600 sec  ( 90.7%)
  Split-RI-J                ....       1.497 sec  ( 17.4% of F)
  Chain of spheres X        ....       6.528 sec  ( 75.9% of F)
  COS-X 1 center corr.      ....       0.000 sec  (  0.0% of F)
  XC integration            ....       0.555 sec  (  6.5% of F)
    Basis function eval.    ....       0.218 sec  ( 39.2% of XC)
    Density eval.           ....       0.096 sec  ( 17.3% of XC)
    XC-Functional eval.     ....       0.027 sec  (  4.9% of XC)
    XC-Potential eval.      ....       0.174 sec  ( 31.4% of XC)
Diagonalization             ....       0.007 sec  (  0.1%)
Density matrix formation    ....       0.014 sec  (  0.2%)
Population analysis         ....       0.000 sec  (  0.0%)
Initial guess               ....       0.007 sec  (  0.1%)
Orbital Transformation      ....       0.000 sec  (  0.0%)
Orbital Orthonormalization  ....       0.004 sec  (  0.0%)
DIIS solution               ....       0.001 sec  (  0.0%)
SOSCF solution              ....       0.063 sec  (  0.7%)
Grid generation             ....       0.739 sec  (  7.8%)


-------------------------------------------------------------------------------
                          DFT DISPERSION CORRECTION                            
                                                                               
                              DFTD3 V3.1  Rev 1                                
                          USING Becke-Johnson damping                          
-------------------------------------------------------------------------------
The B3LYP functional is recognized
Active option DFTDOPT                   ...         4   

molecular C6(AA) [au] = 3641.424041 


            DFT-D V3
 parameters
 s6 scaling factor         :     1.0000 
 a1 scaling factor         :     0.3981 
 s8 scaling factor         :     1.9889 
 a2 scaling factor         :     4.4211 
 ad hoc parameters k1-k3   :    16.0000     1.3333    -4.0000 

 Edisp/kcal,au: -17.084915604598  -0.027226543165 
 E6   /kcal   :  -8.378722631 
 E8   /kcal   :  -8.706192974 
 % E8         :  50.958361019 

-------------------------   ----------------
Dispersion correction           -0.027226543
-------------------------   ----------------


-------------------------   --------------------
FINAL SINGLE POINT ENERGY      -510.434284404949
-------------------------   --------------------

                                *** OPTIMIZATION RUN DONE ***

                            ***************************************
                            *     ORCA property calculations      *
                            ***************************************

                                    ---------------------
                                    Active property flags
                                    ---------------------
   (+) Dipole Moment


------------------------------------------------------------------------------
                       ORCA ELECTRIC PROPERTIES CALCULATION
------------------------------------------------------------------------------

Dipole Moment Calculation                       ... on
Quadrupole Moment Calculation                   ... off
Polarizability Calculation                      ... off
GBWName                                         ... AT-v/e/frag_18_c00001.gbw
Electron density file                           ... AT-v/e/frag_18_c00001.scfp.tmp
The origin for moment calculation is the CENTER OF MASS  = (-0.204395,  0.039644 -0.015484)

-------------
DIPOLE MOMENT
-------------
                                X             Y             Z
Electronic contribution:     -6.41608       0.84011      -0.33722
Nuclear contribution   :      7.36328      -1.59089       0.62139
                        -----------------------------------------
Total Dipole Moment    :      0.94720      -0.75078       0.28417
                        -----------------------------------------
Magnitude (a.u.)       :      1.24161
Magnitude (Debye)      :      3.15593


Timings for individual modules:

Sum of individual times         ...      201.427 sec (=   3.357 min)
GTO integral calculation        ...        6.636 sec (=   0.111 min)   3.3 %
SCF iterations                  ...      156.727 sec (=   2.612 min)  77.8 %
SCF Gradient evaluation         ...       36.346 sec (=   0.606 min)  18.0 %
Geometry relaxation             ...        1.719 sec (=   0.029 min)   0.9 %
                             ****ORCA TERMINATED NORMALLY****
TOTAL RUN TIME: 0 days 0 hours 3 minutes 23 seconds 358 msec
