
                                 *****************
                                 * O   R   C   A *
                                 *****************

           --- An Ab Initio, DFT and Semiempirical electronic structure package ---

                  #######################################################
                  #                        -***-                        #
                  #  Department of molecular theory and spectroscopy    #
                  #              Directorship: Frank Neese              #
                  # Max Planck Institute for Chemical Energy Conversion #
                  #                  D-45470 Muelheim/Ruhr              #
                  #                       Germany                       #
                  #                                                     #
                  #                  All rights reserved                #
                  #                        -***-                        #
                  #######################################################


                         Program Version 4.0.1.2 - RELEASE -


 With contributions from (in alphabetic order):
   Daniel Aravena         : Magnetic Properties
   Michael Atanasov       : Ab Initio Ligand Field Theory
   Ute Becker             : Parallelization
   Martin Brehm           : Molecular dynamics
   Dmytro Bykov           : SCF Hessian
   Vijay G. Chilkuri      : MRCI spin determinant printing
   Dipayan Datta          : RHF DLPNO-CCSD density
   Achintya Kumar Dutta   : EOM-CC, STEOM-CC
   Dmitry Ganyushin       : Spin-Orbit,Spin-Spin,Magnetic field MRCI
   Yang Guo               : DLPNO-NEVPT2, CIM, IAO-localization
   Andreas Hansen         : Spin unrestricted coupled pair/coupled cluster methods
   Lee Huntington         : MR-EOM, pCC
   Robert Izsak           : Overlap fitted RIJCOSX, COSX-SCS-MP3, EOM
   Christian Kollmar      : KDIIS, OOCD, Brueckner-CCSD(T), CCSD density
   Simone Kossmann        : Meta GGA functionals, TD-DFT gradient, OOMP2, MP2 Hessian
   Martin Krupicka        : AUTO-CI
   Dagmar Lenk            : GEPOL surface
   Dimitrios Liakos       : Extrapolation schemes; parallel MDCI
   Dimitrios Manganas     : ROCIS; embedding schemes
   Dimitrios Pantazis     : SARC Basis sets
   Taras Petrenko         : DFT Hessian,TD-DFT gradient, ASA, ECA, R-Raman, ABS, FL, XAS/XES, NRVS
   Peter Pinski           : DLPNO-MP2
   Christoph Reimann      : Effective Core Potentials
   Marius Retegan         : Local ZFS, SOC
   Christoph Riplinger    : Optimizer, TS searches, QM/MM, DLPNO-CCSD(T), (RO)-DLPNO pert. Triples
   Tobias Risthaus        : Range-separated hybrids, TD-DFT gradient, RPA, STAB
   Michael Roemelt        : Restricted open shell CIS
   Masaaki Saitow         : Open-shell DLPNO
   Barbara Sandhoefer     : DKH picture change effects
   Kantharuban Sivalingam : CASSCF convergence, NEVPT2, FIC-MRCI
   Georgi Stoychev        : AutoAux
   Boris Wezisla          : Elementary symmetry handling
   Frank Wennmohs         : Technical directorship


 We gratefully acknowledge several colleagues who have allowed us to
 interface, adapt or use parts of their codes:
   Stefan Grimme, W. Hujo, H. Kruse,             : VdW corrections, initial TS optimization,
                  C. Bannwarth                     DFT functionals, gCP, sTDA/sTD-DF
   Ed Valeev                                     : LibInt (2-el integral package), F12 methods
   Garnet Chan, S. Sharma, J. Yang, R. Olivares  : DMRG
   Ulf Ekstrom                                   : XCFun DFT Library
   Mihaly Kallay                                 : mrcc  (arbitrary order and MRCC methods)
   Andreas Klamt, Michael Diedenhofen            : otool_cosmo (COSMO solvation model)
   Jiri Pittner, Ondrej Demel                    : Mk-CCSD
   Frank Weinhold                                : gennbo (NPA and NBO analysis)
   Christopher J. Cramer and Donald G. Truhlar   : smd solvation model


 Your calculation uses the libint2 library for the computation of 2-el integrals
 For citations please refer to: http://libint.valeyev.net

 This ORCA versions uses:
   CBLAS   interface :  Fast vector & matrix operations
   LAPACKE interface :  Fast linear algebra routines
   SCALAPACK package :  Parallel linear algebra routines


Your calculation utilizes the atom-pairwise dispersion correction
with the Becke-Johnson damping scheme (D3BJ)
Cite in your paper:
S.Grimme, S.Ehrlich, L.Goerigk, J Comput Chem, (2011), 32, 1456–1465 
S.Grimme, J.Antony, S.Ehrlich and H.Krieg, J.Chem.Phys., 132, (2010), 154104 
   

Your calculation utilizes the basis: cc-pVDZ 
       H, B-Ne : Obtained from the ccRepo (grant-hill.group.shef.ac.uk/ccrepo) Feb. 2017
                 T. H. Dunning, Jr., J. Chem. Phys. 90, 1007 (1989)
            He : Obtained from the ccRepo (grant-hill.group.shef.ac.uk/ccrepo) Feb. 2017
                 D. E. Woon, T. H. Dunning, Jr., J. Chem. Phys. 100, 2975 (1994)
  Li-Be, Na-Mg : Obtained from the ccRepo (grant-hill.group.shef.ac.uk/ccrepo) Feb. 2017
                 B. P. Prascher, D. E. Woon, K. A. Peterson, T. H. Dunning, Jr., A. K. Wilson, Theor. Chem. Acc. 128, 69 (2011)
         Al-Ar : Obtained from the ccRepo (grant-hill.group.shef.ac.uk/ccrepo) Feb. 2017
                 D. E. Woon, T. H. Dunning, Jr., J. Chem. Phys. 98, 1358 (1993)
            Ca : Obtained from the Peterson Research Group Website (tyr0.chem.wsu.edu/~kipeters) Feb. 2017
                 J. Koput, K. A. Peterson, J. Phys. Chem. 106, 9595 (2002)
         Sc-Zn : Obtained from the ccRepo (grant-hill.group.shef.ac.uk/ccrepo) Feb. 2017
                 N. B. Balabanov, K. A. Peterson, J. Chem. Phys. 123, 064107 (2005)
                 N. B. Balabanov, K. A. Peterson, J. Chem. Phys. 125, 074110 (2006)
         Ga-Kr : Obtained from the ccRepo (grant-hill.group.shef.ac.uk/ccrepo) Feb. 2017
                 A. K. Wilson, D. E. Woon, K. A. Peterson, T. H. Dunning, Jr., J. Chem. Phys. 110, 7667 (1999)

Your calculation utilizes the auxiliary basis: def2/J
   F. Weigend, Phys. Chem. Chem. Phys. 8, 1057 (2006).

================================================================================
                                        WARNINGS
                       Please study these warnings very carefully!
================================================================================

Warning: TCutStore was < 0. Adjusted to Thresh (uncritical)

WARNING: Geometry Optimization
  ===> : Switching off AutoStart
         For restart on a previous wavefunction, please use MOREAD

INFO   : the flag for use of LIBINT has been found!

================================================================================
                                       INPUT FILE
================================================================================
NAME = g8raf/frag_08_c00001.com
|  1> %pal nprocs 6 end
|  2> %maxcore 1000
|  3> ! b3lyp TIGHTSCF nopop D3BJ
|  4> ! cc-pvdz def2/J RIJCOSX
|  5> ! Opt
|  6> 
|  7> %geom
|  8> maxiter 60
|  9> TolE 1e-4
| 10> TolRMSG 2e-3
| 11> TolMaxG 3e-3
| 12> TolRMSD 2e-2
| 13> TolMaxD 3e-2
| 14> end
| 15> 
| 16> *xyz 0 1
| 17> C 3.0438 -0.6005 -0.0004
| 18> C 1.7187 -0.7466 -0.0053
| 19> N 1.0375 -1.9307 -0.0107
| 20> H 3.7118 -1.4544 -0.005
| 21> H 3.4903 0.3883 -0.0047
| 22> H 1.0699 0.1283 -0.0148
| 23> H 1.5969 -2.7324 0.2704
| 24> H 0.1424 -1.8926 0.4715
| 25> *
| 26> 
| 27> 
| 28>                          ****END OF INPUT****
================================================================================

                       *****************************
                       * Geometry Optimization Run *
                       *****************************

Geometry optimization settings:
Update method            Update   .... BFGS
Choice of coordinates    CoordSys .... Redundant Internals
Initial Hessian          InHess   .... Almoef's Model

Convergence Tolerances:
Energy Change            TolE     ....  1.0000e-04 Eh
Max. Gradient            TolMAXG  ....  3.0000e-03 Eh/bohr
RMS Gradient             TolRMSG  ....  2.0000e-03 Eh/bohr
Max. Displacement        TolMAXD  ....  3.0000e-02 bohr
RMS Displacement         TolRMSD  ....  2.0000e-02 bohr

------------------------------------------------------------------------------
                        ORCA OPTIMIZATION COORDINATE SETUP
------------------------------------------------------------------------------

The optimization will be done in new redundant internal coordinates
Making redundant internal coordinates   ...  (new redundants) done
Evaluating the initial hessian          ...  (Almloef) done
Evaluating the coordinates              ...  done
Calculating the B-matrix                .... done
Calculating the G-matrix                .... done
Diagonalizing the G-matrix              .... done
The first mode is                       ....    6
The number of degrees of freedom        ....   18

    -----------------------------------------------------------------
                    Redundant Internal Coordinates


    -----------------------------------------------------------------
         Definition                    Initial Value    Approx d2E/dq
    -----------------------------------------------------------------
      1. B(C   1,C   0)                  1.3331         0.769940   
      2. B(N   2,C   1)                  1.3661         0.611012   
      3. B(H   3,C   0)                  1.0842         0.367917   
      4. B(H   4,C   0)                  1.0849         0.366849   
      5. B(H   5,C   1)                  1.0893         0.361084   
      6. B(H   6,N   2)                  1.0172         0.421434   
      7. B(H   7,N   2)                  1.0174         0.421050   
      8. A(H   3,C   0,H   4)          117.6607         0.292677   
      9. A(C   1,C   0,H   4)          120.5922         0.367336   
     10. A(C   1,C   0,H   3)          121.7424         0.367519   
     11. A(N   2,C   1,H   5)          113.5258         0.350035   
     12. A(C   0,C   1,H   5)          120.2684         0.366340   
     13. A(C   0,C   1,N   2)          126.2036         0.447236   
     14. A(C   1,N   2,H   6)          114.0691         0.356177   
     15. A(H   6,N   2,H   7)          112.4802         0.300668   
     16. A(C   1,N   2,H   7)          113.8514         0.356122   
     17. D(H   5,C   1,C   0,H   4)      0.0674         0.042496   
     18. D(H   5,C   1,C   0,H   3)   -179.1282         0.042496   
     19. D(N   2,C   1,C   0,H   4)    179.4852         0.042496   
     20. D(N   2,C   1,C   0,H   3)      0.2896         0.042496   
     21. D(H   6,N   2,C   1,H   5)   -162.9195         0.030163   
     22. D(H   7,N   2,C   1,C   0)    148.5763         0.030163   
     23. D(H   6,N   2,C   1,C   0)     17.6289         0.030163   
     24. D(H   7,N   2,C   1,H   5)    -31.9721         0.030163   
    -----------------------------------------------------------------

Number of atoms                         .... 8
Number of degrees of freedom            .... 24

         *************************************************************
         *                GEOMETRY OPTIMIZATION CYCLE   1            *
         *************************************************************
---------------------------------
CARTESIAN COORDINATES (ANGSTROEM)
---------------------------------
  C      3.043800   -0.600500   -0.000400
  C      1.718700   -0.746600   -0.005300
  N      1.037500   -1.930700   -0.010700
  H      3.711800   -1.454400   -0.005000
  H      3.490300    0.388300   -0.004700
  H      1.069900    0.128300   -0.014800
  H      1.596900   -2.732400    0.270400
  H      0.142400   -1.892600    0.471500

----------------------------
CARTESIAN COORDINATES (A.U.)
----------------------------
  NO LB      ZA    FRAG     MASS         X           Y           Z
   0 C     6.0000    0    12.011    5.751948   -1.134781   -0.000756
   1 C     6.0000    0    12.011    3.247872   -1.410870   -0.010016
   2 N     7.0000    0    14.007    1.960591   -3.648494   -0.020220
   3 H     1.0000    0     1.008    7.014285   -2.748418   -0.009449
   4 H     1.0000    0     1.008    6.595711    0.733781   -0.008882
   5 H     1.0000    0     1.008    2.021818    0.242452   -0.027968
   6 H     1.0000    0     1.008    3.017704   -5.163488    0.510982
   7 H     1.0000    0     1.008    0.269097   -3.576496    0.891006

--------------------------------
INTERNAL COORDINATES (ANGSTROEM)
--------------------------------
 C      0   0   0     0.000000000000     0.00000000     0.00000000
 C      1   0   0     1.333138863735     0.00000000     0.00000000
 N      2   1   0     1.366072988533   126.20355665     0.00000000
 H      1   2   3     1.084154218735   121.74243355     0.28961843
 H      1   2   3     1.084945242858   120.59222620   179.48515901
 H      2   1   3     1.089257407595   120.26838795   180.58221607
 H      3   2   1     1.017186541397   114.06909466    17.62892015
 H      3   2   1     1.017434253404   113.85140319   148.57630286

---------------------------
INTERNAL COORDINATES (A.U.)
---------------------------
 C      0   0   0     0.000000000000     0.00000000     0.00000000
 C      1   0   0     2.519267350946     0.00000000     0.00000000
 N      2   1   0     2.581503827275   126.20355665     0.00000000
 H      1   2   3     2.048754560344   121.74243355     0.28961843
 H      1   2   3     2.050249379302   120.59222620   179.48515901
 H      2   1   3     2.058398189699   120.26838795   180.58221607
 H      3   2   1     1.922203990352   114.06909466    17.62892015
 H      3   2   1     1.922672098204   113.85140319   148.57630286

---------------------
BASIS SET INFORMATION
---------------------
There are 3 groups of distinct atoms

 Group   1 Type C   : 17s4p1d contracted to 3s2p1d pattern {881/31/1}
 Group   2 Type N   : 17s4p1d contracted to 3s2p1d pattern {881/31/1}
 Group   3 Type H   : 4s1p contracted to 2s1p pattern {31/1}

Atom   0C    basis set group =>   1
Atom   1C    basis set group =>   1
Atom   2N    basis set group =>   2
Atom   3H    basis set group =>   3
Atom   4H    basis set group =>   3
Atom   5H    basis set group =>   3
Atom   6H    basis set group =>   3
Atom   7H    basis set group =>   3
-------------------------------
AUXILIARY BASIS SET INFORMATION
-------------------------------
There are 3 groups of distinct atoms

 Group   1 Type C   : 12s5p4d2f1g contracted to 6s4p3d1f1g pattern {711111/2111/211/2/1}
 Group   2 Type N   : 12s5p4d2f1g contracted to 6s4p3d1f1g pattern {711111/2111/211/2/1}
 Group   3 Type H   : 5s2p1d contracted to 3s1p1d pattern {311/2/1}

Atom   0C    basis set group =>   1
Atom   1C    basis set group =>   1
Atom   2N    basis set group =>   2
Atom   3H    basis set group =>   3
Atom   4H    basis set group =>   3
Atom   5H    basis set group =>   3
Atom   6H    basis set group =>   3
Atom   7H    basis set group =>   3


           ************************************************************
           *        Program running with 6 parallel MPI-processes     *
           *              working on a common directory               *
           ************************************************************
------------------------------------------------------------------------------
                           ORCA GTO INTEGRAL CALCULATION
                           -- RI-GTO INTEGRALS CHOSEN --
------------------------------------------------------------------------------

                         BASIS SET STATISTICS AND STARTUP INFO

Gaussian basis set:
 # of primitive gaussian shells          ...   91
 # of primitive gaussian functions       ...  137
 # of contracted shells                  ...   33
 # of contracted basis functions         ...   67
 Highest angular momentum                ...    2
 Maximum contraction depth               ...    8
Auxiliary gaussian basis set:
 # of primitive gaussian shells          ...  112
 # of primitive gaussian functions       ...  290
 # of contracted shells                  ...   70
 # of contracted aux-basis functions     ...  202
 Highest angular momentum                ...    4
 Maximum contraction depth               ...    7
Ratio of auxiliary to basis functions    ...  3.01
Integral package used                  ... LIBINT
 One Electron integrals                  ... done
 Ordering auxiliary basis shells         ... done
 Integral threshhold             Thresh  ...  2.500e-11
 Primitive cut-off               TCut    ...  2.500e-12
 Pre-screening matrix                    ... done
 Shell pair data                         ... 
 Ordering of the shell pairs             ... done (   0.000 sec) 561 of 561 pairs
 Determination of significant pairs      ... done (   0.000 sec)
 Creation of shell pair data             ... done (   0.000 sec)
 Storage of shell pair data              ... done (   0.001 sec)
 Shell pair data done in (   0.001 sec)
 Computing two index integrals           ... done
 Cholesky decomposition of the V-matrix  ... done


Timings:
 Total evaluation time                   ...   0.246 sec (  0.004 min)
 One electron matrix time                ...   0.018 sec (  0.000 min) =  7.3%
 Schwartz matrix evaluation time         ...   0.147 sec (  0.002 min) = 59.8%
 Two index repulsion integral time       ...   0.061 sec (  0.001 min) = 24.8%
 Cholesky decomposition of V             ...   0.001 sec (  0.000 min) =  0.5%
 Three index repulsion integral time     ...   0.000 sec (  0.000 min) =  0.0%



           ************************************************************
           *        Program running with 6 parallel MPI-processes     *
           *              working on a common directory               *
           ************************************************************
-------------------------------------------------------------------------------
                                 ORCA SCF
-------------------------------------------------------------------------------

------------
SCF SETTINGS
------------
Hamiltonian:
 Density Functional     Method          .... DFT(GTOs)
 Exchange Functional    Exchange        .... B88
   X-Alpha parameter    XAlpha          ....  0.666667
   Becke's b parameter  XBeta           ....  0.004200
 Correlation Functional Correlation     .... LYP
 LDA part of GGA corr.  LDAOpt          .... VWN-5
 Gradients option       PostSCFGGA      .... off
 Hybrid DFT is turned on
   Fraction HF Exchange ScalHFX         ....  0.200000
   Scaling of DF-GGA-X  ScalDFX         ....  0.720000
   Scaling of DF-GGA-C  ScalDFC         ....  0.810000
   Scaling of DF-LDA-C  ScalLDAC        ....  1.000000
   Perturbative correction              ....  0.000000
   NL short-range parameter             ....  4.800000
 RI-approximation to the Coulomb term is turned on
   Number of auxiliary basis functions  .... 202
   RIJ-COSX (HFX calculated with COS-X)).... on


General Settings:
 Integral files         IntName         .... g8raf/frag_08_c00001
 Hartree-Fock type      HFTyp           .... RHF
 Total Charge           Charge          ....    0
 Multiplicity           Mult            ....    1
 Number of Electrons    NEL             ....   24
 Basis Dimension        Dim             ....   67
 Nuclear Repulsion      ENuc            ....     72.0350712405 Eh

Convergence Acceleration:
 DIIS                   CNVDIIS         .... on
   Start iteration      DIISMaxIt       ....    12
   Startup error        DIISStart       ....  0.200000
   # of expansion vecs  DIISMaxEq       ....     5
   Bias factor          DIISBfac        ....   1.050
   Max. coefficient     DIISMaxC        ....  10.000
 Newton-Raphson         CNVNR           .... off
 SOSCF                  CNVSOSCF        .... on
   Start iteration      SOSCFMaxIt      ....   150
   Startup grad/error   SOSCFStart      ....  0.003300
 Level Shifting         CNVShift        .... on
   Level shift para.    LevelShift      ....    0.2500
   Turn off err/grad.   ShiftErr        ....    0.0010
 Zerner damping         CNVZerner       .... off
 Static damping         CNVDamp         .... on
   Fraction old density DampFac         ....    0.7000
   Max. Damping (<1)    DampMax         ....    0.9800
   Min. Damping (>=0)   DampMin         ....    0.0000
   Turn off err/grad.   DampErr         ....    0.1000
 Fernandez-Rico         CNVRico         .... off

SCF Procedure:
 Maximum # iterations   MaxIter         ....   125
 SCF integral mode      SCFMode         .... Direct
   Integral package                     .... LIBINT
 Reset frequeny         DirectResetFreq ....    20
 Integral Threshold     Thresh          ....  2.500e-11 Eh
 Primitive CutOff       TCut            ....  2.500e-12 Eh

Convergence Tolerance:
 Convergence Check Mode ConvCheckMode   .... Total+1el-Energy
 Convergence forced     ConvForced      .... 0
 Energy Change          TolE            ....  1.000e-08 Eh
 1-El. energy change                    ....  1.000e-05 Eh
 Orbital Gradient       TolG            ....  1.000e-05
 Orbital Rotation angle TolX            ....  1.000e-05
 DIIS Error             TolErr          ....  5.000e-07


Diagonalization of the overlap matrix:
Smallest eigenvalue                        ... 3.145e-03
Time for diagonalization                   ...    0.001 sec
Threshold for overlap eigenvalues          ... 1.000e-08
Number of eigenvalues below threshold      ... 0
Time for construction of square roots      ...    0.001 sec
Total time needed                          ...    0.002 sec

-------------------
DFT GRID GENERATION
-------------------

General Integration Accuracy     IntAcc      ...  4.340
Radial Grid Type                 RadialGrid  ... Gauss-Chebyshev
Angular Grid (max. acc.)         AngularGrid ... Lebedev-110
Angular grid pruning method      GridPruning ... 3 (G Style)
Weight generation scheme         WeightScheme... Becke
Basis function cutoff            BFCut       ...    1.0000e-11
Integration weight cutoff        WCut        ...    1.0000e-14
Grids for H and He will be reduced by one unit

# of grid points (after initial pruning)     ...   8984 (   0.0 sec)
# of grid points (after weights+screening)   ...   8658 (   0.0 sec)
nearest neighbour list constructed           ...    0.0 sec
Grid point re-assignment to atoms done       ...    0.0 sec
Grid point division into batches done        ...    0.0 sec
Reduced shell lists constructed in    0.0 sec

Total number of grid points                  ...     8658
Total number of batches                      ...      138
Average number of points per batch           ...       62
Average number of grid points per atom       ...     1082
Average number of shells per batch           ...    31.62 (95.83%)
Average number of basis functions per batch  ...    64.21 (95.83%)
Average number of large shells per batch     ...    29.88 (94.47%)
Average number of large basis fcns per batch ...    60.88 (94.81%)
Maximum spatial batch extension              ...   2.92,  3.40, 20.10 au
Average spatial batch extension              ...   0.29,  0.30,  0.69 au

Time for grid setup =    0.032 sec

------------------------------
INITIAL GUESS: MODEL POTENTIAL
------------------------------
Loading Hartree-Fock densities                     ... done
Calculating cut-offs                               ... done
Setting up the integral package                    ... done
Initializing the effective Hamiltonian             ... done
Starting the Coulomb interaction                   ... done (   0.0 sec)
Reading the grid                                   ... done
Mapping shells                                     ... done
Starting the XC term evaluation                    ... done (   0.0 sec)
  promolecular density results
     # of electrons  =     23.991542828
     EX              =    -18.325728730
     EC              =     -0.772948280
     EX+EC           =    -19.098677010
Transforming the Hamiltonian                       ... done (   0.0 sec)
Diagonalizing the Hamiltonian                      ... done (   0.0 sec)
Back transforming the eigenvectors                 ... done (   0.0 sec)
Now organizing SCF variables                       ... done
                      ------------------
                      INITIAL GUESS DONE (   0.2 sec)
                      ------------------
--------------------
COSX GRID GENERATION
--------------------

General Integration Accuracy     IntAcc      ...  3.340
Radial Grid Type                 RadialGrid  ... Gauss-Chebyshev
Angular Grid (max. acc.)         AngularGrid ... Lebedev-50
Angular grid pruning method      GridPruning ... 3 (G Style)
Weight generation scheme         WeightScheme... Becke
Basis function cutoff            BFCut       ...    1.0000e-11
Integration weight cutoff        WCut        ...    1.0000e-14
Grids for H and He will be reduced by one unit

# of grid points (after initial pruning)     ...   3326 (   0.0 sec)
# of grid points (after weights+screening)   ...   3206 (   0.0 sec)
nearest neighbour list constructed           ...    0.0 sec
Grid point re-assignment to atoms done       ...    0.0 sec
Grid point division into batches done        ...    0.0 sec
Reduced shell lists constructed in    0.0 sec

Total number of grid points                  ...     3206
Total number of batches                      ...       55
Average number of points per batch           ...       58
Average number of grid points per atom       ...      401
Average number of shells per batch           ...    30.00 (90.91%)
Average number of basis functions per batch  ...    60.91 (90.91%)
Average number of large shells per batch     ...    28.73 (95.76%)
Average number of large basis fcns per batch ...    58.18 (95.52%)
Maximum spatial batch extension              ...   3.04,  3.13, 17.08 au
Average spatial batch extension              ...   0.38,  0.38,  1.02 au

Overlap Fitting                  UseSFitting ... on
Constructing numerical overlap ... done (      0.0 sec)
Inverting numerical overlap    ... done (      0.0 sec)
Obtaining analytic overlap     ... done (      0.0 sec)
Final contraction and storage  ... done (      0.0 sec)


General Integration Accuracy     IntAcc      ...  3.670
Radial Grid Type                 RadialGrid  ... Gauss-Chebyshev
Angular Grid (max. acc.)         AngularGrid ... Lebedev-50
Angular grid pruning method      GridPruning ... 3 (G Style)
Weight generation scheme         WeightScheme... Becke
Basis function cutoff            BFCut       ...    1.0000e-11
Integration weight cutoff        WCut        ...    1.0000e-14
Grids for H and He will be reduced by one unit

# of grid points (after initial pruning)     ...   4298 (   0.0 sec)
# of grid points (after weights+screening)   ...   4139 (   0.0 sec)
nearest neighbour list constructed           ...    0.0 sec
Grid point re-assignment to atoms done       ...    0.0 sec
Grid point division into batches done        ...    0.0 sec
Reduced shell lists constructed in    0.0 sec

Total number of grid points                  ...     4139
Total number of batches                      ...       68
Average number of points per batch           ...       60
Average number of grid points per atom       ...      517
Average number of shells per batch           ...    30.46 (92.31%)
Average number of basis functions per batch  ...    61.85 (92.31%)
Average number of large shells per batch     ...    29.46 (96.72%)
Average number of large basis fcns per batch ...    59.62 (96.39%)
Maximum spatial batch extension              ...   2.85,  3.03, 18.83 au
Average spatial batch extension              ...   0.34,  0.35,  1.06 au

Overlap Fitting                  UseSFitting ... on
Constructing numerical overlap ... done (      0.0 sec)
Inverting numerical overlap    ... done (      0.0 sec)
Obtaining analytic overlap     ... done (      0.0 sec)
Final contraction and storage  ... done (      0.0 sec)


General Integration Accuracy     IntAcc      ...  4.010
Radial Grid Type                 RadialGrid  ... Gauss-Chebyshev
Angular Grid (max. acc.)         AngularGrid ... Lebedev-110
Angular grid pruning method      GridPruning ... 3 (G Style)
Weight generation scheme         WeightScheme... Becke
Basis function cutoff            BFCut       ...    1.0000e-11
Integration weight cutoff        WCut        ...    1.0000e-14
Grids for H and He will be reduced by one unit

# of grid points (after initial pruning)     ...   7744 (   0.0 sec)
# of grid points (after weights+screening)   ...   7467 (   0.0 sec)
nearest neighbour list constructed           ...    0.0 sec
Grid point re-assignment to atoms done       ...    0.0 sec
Grid point division into batches done        ...    0.0 sec
Reduced shell lists constructed in    0.0 sec

Total number of grid points                  ...     7467
Total number of batches                      ...      121
Average number of points per batch           ...       61
Average number of grid points per atom       ...      933
Average number of shells per batch           ...    31.50 (95.45%)
Average number of basis functions per batch  ...    63.95 (95.45%)
Average number of large shells per batch     ...    30.27 (96.10%)
Average number of large basis fcns per batch ...    61.55 (96.23%)
Maximum spatial batch extension              ...   3.05,  3.51, 19.04 au
Average spatial batch extension              ...   0.30,  0.34,  0.73 au

Overlap Fitting                  UseSFitting ... on
Constructing numerical overlap ... done (      0.0 sec)
Inverting numerical overlap    ... done (      0.0 sec)
Obtaining analytic overlap     ... done (      0.0 sec)
Final contraction and storage  ... done (      0.0 sec)

Time for X-Grid setup             =    0.148 sec
--------------
SCF ITERATIONS
--------------
ITER       Energy         Delta-E        Max-DP      RMS-DP      [F,P]     Damp
               ***  Starting incremental Fock matrix formation  ***
  0   -133.7196536695   0.000000000000 0.07737708  0.00359841  0.2304522 0.7000
  1   -133.7873499428  -0.067696273348 0.04850145  0.00253859  0.1097324 0.7000
                               ***Turning on DIIS***
  2   -133.8148093282  -0.027459385391 0.08419569  0.00413900  0.0405675 0.0000
  3   -133.8531382007  -0.038328872444 0.03237900  0.00167084  0.0603718 0.0000
  4   -133.8641131617  -0.010974961013 0.00953651  0.00051550  0.0149524 0.0000
  5   -133.8647383648  -0.000625203088 0.00345199  0.00017525  0.0051979 0.0000
                      *** Initiating the SOSCF procedure ***
                           *** Shutting down DIIS ***
                      *** Re-Reading the Fockian *** 
                      *** Removing any level shift *** 
ITER      Energy       Delta-E        Grad      Rot      Max-DP    RMS-DP
  6   -133.86478679  -0.0000484262  0.000328  0.000328  0.000888  0.000058
               *** Restarting incremental Fock matrix formation ***
  7   -133.86479338  -0.0000065892  0.000129  0.000248  0.000476  0.000034
  8   -133.86479359  -0.0000002058  0.000084  0.000121  0.000239  0.000009
  9   -133.86479372  -0.0000001334  0.000027  0.000098  0.000097  0.000006
 10   -133.86479371   0.0000000054  0.000030  0.000043  0.000069  0.000002
 11   -133.86479372  -0.0000000083  0.000005  0.000011  0.000014  0.000001
 12   -133.86479372   0.0000000004  0.000004  0.000004  0.000009  0.000000
                  ***Gradient check signals convergence***
              ***Rediagonalizing the Fockian in SOSCF/NRSCF***

               *****************************************************
               *                     SUCCESS                       *
               *           SCF CONVERGED AFTER  13 CYCLES          *
               *****************************************************

Setting up the final grid:

General Integration Accuracy     IntAcc      ...  4.670
Radial Grid Type                 RadialGrid  ... Gauss-Chebyshev
Angular Grid (max. acc.)         AngularGrid ... Lebedev-302
Angular grid pruning method      GridPruning ... 3 (G Style)
Weight generation scheme         WeightScheme... Becke
Basis function cutoff            BFCut       ...    1.0000e-11
Integration weight cutoff        WCut        ...    1.0000e-14
Grids for H and He will be reduced by one unit

# of grid points (after initial pruning)     ...  35606 (   0.0 sec)
# of grid points (after weights+screening)   ...  34029 (   0.0 sec)
nearest neighbour list constructed           ...    0.0 sec
Grid point re-assignment to atoms done       ...    0.0 sec
Grid point division into batches done        ...    0.1 sec
Reduced shell lists constructed in    0.1 sec

Total number of grid points                  ...    34029
Total number of batches                      ...      535
Average number of points per batch           ...       63
Average number of grid points per atom       ...     4254
Average number of shells per batch           ...    32.36 (98.07%)
Average number of basis functions per batch  ...    65.59 (97.90%)
Average number of large shells per batch     ...    29.84 (92.19%)
Average number of large basis fcns per batch ...    60.25 (91.86%)
Maximum spatial batch extension              ...   2.77,  3.33, 18.57 au
Average spatial batch extension              ...   0.20,  0.21,  0.29 au

Final grid set up in    0.2 sec
Final integration                            ... done (   0.1 sec)
Change in XC energy                          ...    -0.000108545
Integrated number of electrons               ...    23.999957055
Previous integrated no of electrons          ...    23.997895318
Old exchange energy                            =     -3.750991405 Eh
New exchange energy                            =     -3.750796519 Eh
Exchange energy change after final integration =      0.000194886 Eh
Total energy after final integration           =   -133.864707382 Eh
Final COS-X integration done in                =     0.258 sec

----------------
TOTAL SCF ENERGY
----------------

Total Energy       :         -133.86470738 Eh           -3642.64388 eV

Components:
Nuclear Repulsion  :           72.03507124 Eh            1960.17394 eV
Electronic Energy  :         -205.89977862 Eh           -5602.81782 eV
One Electron Energy:         -322.17001524 Eh           -8766.69180 eV
Two Electron Energy:          116.27023662 Eh            3163.87399 eV

Virial components:
Potential Energy   :         -266.90262611 Eh           -7262.78969 eV
Kinetic Energy     :          133.03791873 Eh            3620.14581 eV
Virial Ratio       :            2.00621468


DFT components:
N(Alpha)           :       11.999978527331 electrons
N(Beta)            :       11.999978527331 electrons
N(Total)           :       23.999957054663 electrons
E(X)               :      -14.883414733666 Eh       
E(C)               :       -0.922335232305 Eh       
E(XC)              :      -15.805749965970 Eh       

---------------
SCF CONVERGENCE
---------------

  Last Energy change         ...   -1.1044e-09  Tolerance :   1.0000e-08
  Last MAX-Density change    ...    1.7764e-15  Tolerance :   1.0000e-07
  Last RMS-Density change    ...    4.6070e-17  Tolerance :   5.0000e-09
  Last Orbital Gradient      ...    1.1925e-06  Tolerance :   1.0000e-05
  Last Orbital Rotation      ...    1.6755e-06  Tolerance :   1.0000e-05

             **** THE GBW FILE WAS UPDATED (g8raf/frag_08_c00001.gbw) ****
             **** DENSITY FILE WAS UPDATED (g8raf/frag_08_c00001.scfp.tmp) ****
             **** ENERGY FILE WAS UPDATED (g8raf/frag_08_c00001.en.tmp) ****
----------------
ORBITAL ENERGIES
----------------

  NO   OCC          E(Eh)            E(eV) 
   0   2.0000     -14.328905      -389.9093 
   1   2.0000     -10.205689      -277.7109 
   2   2.0000     -10.146562      -276.1020 
   3   2.0000      -0.908507       -24.7217 
   4   2.0000      -0.718693       -19.5566 
   5   2.0000      -0.575014       -15.6469 
   6   2.0000      -0.514571       -14.0022 
   7   2.0000      -0.457487       -12.4488 
   8   2.0000      -0.398004       -10.8302 
   9   2.0000      -0.356525        -9.7015 
  10   2.0000      -0.336609        -9.1596 
  11   2.0000      -0.197914        -5.3855 
  12   0.0000       0.046964         1.2779 
  13   0.0000       0.065477         1.7817 
  14   0.0000       0.088098         2.3973 
  15   0.0000       0.114021         3.1027 
  16   0.0000       0.152491         4.1495 
  17   0.0000       0.166117         4.5203 
  18   0.0000       0.307344         8.3633 
  19   0.0000       0.337369         9.1803 
  20   0.0000       0.433914        11.8074 
  21   0.0000       0.471646        12.8341 
  22   0.0000       0.498926        13.5765 
  23   0.0000       0.518447        14.1077 
  24   0.0000       0.568272        15.4635 
  25   0.0000       0.578353        15.7378 
  26   0.0000       0.591878        16.1058 
  27   0.0000       0.666859        18.1462 
  28   0.0000       0.694632        18.9019 
  29   0.0000       0.719537        19.5796 
  30   0.0000       0.765954        20.8427 
  31   0.0000       0.792779        21.5726 
  32   0.0000       0.850928        23.1549 
  33   0.0000       0.892055        24.2741 
  34   0.0000       0.969908        26.3925 
  35   0.0000       1.009160        27.4607 
  36   0.0000       1.044677        28.4271 
  37   0.0000       1.059815        28.8390 
  38   0.0000       1.108177        30.1550 
  39   0.0000       1.287031        35.0219 
  40   0.0000       1.347625        36.6707 
  41   0.0000       1.404687        38.2235 
  42   0.0000       1.506097        40.9830 
  43   0.0000       1.528951        41.6049 
  44   0.0000       1.567133        42.6439 
  45   0.0000       1.598912        43.5086 
  46   0.0000       1.605578        43.6900 
  47   0.0000       1.673849        45.5477 
  48   0.0000       1.700712        46.2787 
  49   0.0000       1.715009        46.6678 
  50   0.0000       1.804960        49.1155 
  51   0.0000       1.876134        51.0522 
  52   0.0000       1.940227        52.7963 
  53   0.0000       1.959142        53.3110 
  54   0.0000       1.972951        53.6867 
  55   0.0000       2.122335        57.7517 
  56   0.0000       2.133799        58.0636 
  57   0.0000       2.215683        60.2918 
  58   0.0000       2.296711        62.4967 
  59   0.0000       2.397605        65.2421 
  60   0.0000       2.500070        68.0304 
  61   0.0000       2.539022        69.0903 
  62   0.0000       2.607999        70.9673 
  63   0.0000       2.746218        74.7284 
  64   0.0000       2.794051        76.0300 
  65   0.0000       2.994620        81.4877 
  66   0.0000       3.229288        87.8734 
-------
TIMINGS
-------

Total SCF time: 0 days 0 hours 0 min 5 sec 

Total time                  ....       5.102 sec
Sum of individual times     ....       5.080 sec  ( 99.6%)

Fock matrix formation       ....       4.433 sec  ( 86.9%)
  Split-RI-J                ....       1.783 sec  ( 40.2% of F)
  Chain of spheres X        ....       2.279 sec  ( 51.4% of F)
  COS-X 1 center corr.      ....       0.000 sec  (  0.0% of F)
  XC integration            ....       0.344 sec  (  7.8% of F)
    Basis function eval.    ....       0.099 sec  ( 28.7% of XC)
    Density eval.           ....       0.037 sec  ( 10.8% of XC)
    XC-Functional eval.     ....       0.021 sec  (  6.0% of XC)
    XC-Potential eval.      ....       0.066 sec  ( 19.3% of XC)
Diagonalization             ....       0.008 sec  (  0.2%)
Density matrix formation    ....       0.034 sec  (  0.7%)
Population analysis         ....       0.000 sec  (  0.0%)
Initial guess               ....       0.147 sec  (  2.9%)
Orbital Transformation      ....       0.000 sec  (  0.0%)
Orbital Orthonormalization  ....       0.000 sec  (  0.0%)
DIIS solution               ....       0.003 sec  (  0.1%)
SOSCF solution              ....       0.075 sec  (  1.5%)
Grid generation             ....       0.381 sec  (  7.5%)


-------------------------------------------------------------------------------
                          DFT DISPERSION CORRECTION                            
                                                                               
                              DFTD3 V3.1  Rev 1                                
                          USING Becke-Johnson damping                          
-------------------------------------------------------------------------------
The B3LYP functional is recognized
Active option DFTDOPT                   ...         4   

molecular C6(AA) [au] = 520.872924 


            DFT-D V3
 parameters
 s6 scaling factor         :     1.0000 
 a1 scaling factor         :     0.3981 
 s8 scaling factor         :     1.9889 
 a2 scaling factor         :     4.4211 
 ad hoc parameters k1-k3   :    16.0000     1.3333    -4.0000 

 Edisp/kcal,au: -4.332386184809  -0.006904096116 
 E6   /kcal   :  -2.142895929 
 E8   /kcal   :  -2.189490255 
 % E8         :  50.537744374 

-------------------------   ----------------
Dispersion correction           -0.006904096
-------------------------   ----------------


-------------------------   --------------------
FINAL SINGLE POINT ENERGY      -133.871611477618
-------------------------   --------------------



           ************************************************************
           *        Program running with 6 parallel MPI-processes     *
           *              working on a common directory               *
           ************************************************************
------------------------------------------------------------------------------
                         ORCA SCF GRADIENT CALCULATION
------------------------------------------------------------------------------

Gradient of the Kohn-Sham DFT energy:
Kohn-Sham wavefunction type      ... RKS
Hartree-Fock exchange scaling    ...    0.200
Number of operators              ...    1
Number of atoms                  ...    8
Basis set dimensions             ...   67
Integral neglect threshold       ... 2.5e-11
Integral primitive cutoff        ... 2.5e-12

Nuclear repulsion gradient       ... done
One Electron Gradient            ... done
Pre-screening matrix             ... done
RI-J gradient                    ... done
COSX-gradient                    ... done
Exchange-correlation gradient    ... done
Dispersion correction            ... done

------------------
CARTESIAN GRADIENT
------------------

   1   C   :   -0.006721536   -0.006275989    0.001029522
   2   C   :   -0.004272349   -0.013322475   -0.004589695
   3   N   :    0.013282742    0.016658241    0.002000493
   4   H   :   -0.004302133    0.005741672   -0.001321672
   5   H   :   -0.001563469   -0.003340026    0.002119785
   6   H   :    0.002247592   -0.004644450    0.000640247
   7   H   :    0.002279776    0.001249758   -0.000412060
   8   H   :   -0.001714909    0.003691329    0.000781325

Difference to translation invariance:
           :   -0.0007642867   -0.0002419390    0.0002479449

Norm of the cartesian gradient     ...    0.0297122584
RMS gradient                       ...    0.0060649894
MAX gradient                       ...    0.0166582406

-------
TIMINGS
-------

Total SCF gradient time            ...        1.117 sec

One electron gradient       ....       0.012 sec  (  1.1%)
Prescreening matrices       ....       0.031 sec  (  2.7%)
RI-J Coulomb gradient       ....       0.158 sec  ( 14.2%)
COSX gradient               ....       0.281 sec  ( 25.2%)
XC gradient                 ....       0.251 sec  ( 22.5%)
------------------------------------------------------------------------------
                         ORCA GEOMETRY RELAXATION STEP
------------------------------------------------------------------------------

Reading the OPT-File                    .... done
Getting information on internals        .... done
Copying old internal coords+grads       .... done
Making the new internal coordinates     .... (new redundants).... done
Validating the new internal coordinates .... (new redundants).... done
Calculating the B-matrix                .... done
Calculating the G,G- and P matrices     .... done
Transforming gradient to internals      .... done
Projecting the internal gradient        .... done
Number of atoms                         ....   8
Number of internal coordinates          ....  24
Current Energy                          ....  -133.871611478 Eh
Current gradient norm                   ....     0.029712258 Eh/bohr
Maximum allowed component of the step   ....  0.300
Current trust radius                    ....  0.300
Evaluating the initial hessian          ....  (Almloef) done
Projecting the Hessian                  .... done
Forming the augmented Hessian           .... done
Diagonalizing the augmented Hessian     .... done
Last element of RFO vector              ....  0.993147524
Lowest eigenvalues of augmented Hessian:
 -0.002138044  0.030163615  0.036910890  0.042508863  0.042728777
Length of the computed step             ....  0.117673781
The final length of the internal step   ....  0.117673781
Converting the step to cartesian space:
 Initial RMS(Int)=    0.0240200600
Transforming coordinates:
 Iter   0:  RMS(Cart)=    0.0306315786 RMS(Int)=    0.0239984442
 Iter   1:  RMS(Cart)=    0.0004962292 RMS(Int)=    0.0004371546
 Iter   2:  RMS(Cart)=    0.0000155638 RMS(Int)=    0.0000137332
 Iter   3:  RMS(Cart)=    0.0000006122 RMS(Int)=    0.0000006189
 Iter   4:  RMS(Cart)=    0.0000000208 RMS(Int)=    0.0000000208
done
Storing new coordinates                 .... done

                                .--------------------.
          ----------------------|Geometry convergence|-------------------------
          Item                value                   Tolerance       Converged
          ---------------------------------------------------------------------
          RMS gradient        0.0064201945            0.0020000000      NO
          MAX gradient        0.0258012209            0.0030000000      NO
          RMS step            0.0240200600            0.0200000000      NO
          MAX step            0.0697313981            0.0300000000      NO
          ........................................................
          Max(Bonds)      0.0223      Max(Angles)    0.74
          Max(Dihed)        4.00      Max(Improp)    0.00
          ---------------------------------------------------------------------

The optimization has not yet converged - more geometry cycles are needed


    ---------------------------------------------------------------------------
                         Redundant Internal Coordinates
                            (Angstroem and degrees)

        Definition                    Value    dE/dq     Step     New-Value
    ----------------------------------------------------------------------------
     1. B(C   1,C   0)                1.3331 -0.012670  0.0087    1.3418   
     2. B(N   2,C   1)                1.3661 -0.025801  0.0223    1.3883   
     3. B(H   3,C   0)                1.0842 -0.007174  0.0103    1.0944   
     4. B(H   4,C   0)                1.0849 -0.003599  0.0052    1.0901   
     5. B(H   5,C   1)                1.0893 -0.005106  0.0074    1.0967   
     6. B(H   6,N   2)                1.0172  0.000205 -0.0003    1.0169   
     7. B(H   7,N   2)                1.0174  0.001872 -0.0023    1.0151   
     8. A(H   3,C   0,H   4)          117.66 -0.000170    0.03    117.69   
     9. A(C   1,C   0,H   4)          120.59 -0.000235    0.03    120.62   
    10. A(C   1,C   0,H   3)          121.74  0.000413   -0.07    121.67   
    11. A(N   2,C   1,H   5)          113.53  0.000415   -0.05    113.48   
    12. A(C   0,C   1,H   5)          120.27  0.002284   -0.34    119.93   
    13. A(C   0,C   1,N   2)          126.20 -0.002683    0.36    126.56   
    14. A(C   1,N   2,H   6)          114.07 -0.002505    0.49    114.56   
    15. A(H   6,N   2,H   7)          112.48  0.003792   -0.55    111.93   
    16. A(C   1,N   2,H   7)          113.85 -0.004039    0.74    114.59   
    17. D(H   5,C   1,C   0,H   4)      0.07  0.000838   -0.87     -0.80   
    18. D(H   5,C   1,C   0,H   3)   -179.13  0.000132    0.04   -179.09   
    19. D(N   2,C   1,C   0,H   4)    179.49  0.002952   -4.00    175.49   
    20. D(N   2,C   1,C   0,H   3)      0.29  0.002246   -3.09     -2.80   
    21. D(H   6,N   2,C   1,H   5)   -162.92  0.001476   -1.79   -164.70   
    22. D(H   7,N   2,C   1,C   0)    148.58 -0.001346    1.55    150.13   
    23. D(H   6,N   2,C   1,C   0)     17.63 -0.000526    1.16     18.79   
    24. D(H   7,N   2,C   1,H   5)    -31.97  0.000656   -1.39    -33.36   
    ----------------------------------------------------------------------------

         *************************************************************
         *                GEOMETRY OPTIMIZATION CYCLE   2            *
         *************************************************************
---------------------------------
CARTESIAN COORDINATES (ANGSTROEM)
---------------------------------
  C      3.056022   -0.589545    0.005464
  C      1.722618   -0.739024    0.018787
  N      1.025052   -1.939077   -0.008826
  H      3.730942   -1.451013    0.015322
  H      3.502979    0.403502   -0.043706
  H      1.073021    0.144218   -0.006701
  H      1.573662   -2.753086    0.256814
  H      0.127004   -1.916575    0.463845

----------------------------
CARTESIAN COORDINATES (A.U.)
----------------------------
  NO LB      ZA    FRAG     MASS         X           Y           Z
   0 C     6.0000    0    12.011    5.775045   -1.114079    0.010326
   1 C     6.0000    0    12.011    3.255276   -1.396552    0.035503
   2 N     7.0000    0    14.007    1.937067   -3.664325   -0.016679
   3 H     1.0000    0     1.008    7.050459   -2.742018    0.028955
   4 H     1.0000    0     1.008    6.619672    0.762509   -0.082591
   5 H     1.0000    0     1.008    2.027716    0.272533   -0.012663
   6 H     1.0000    0     1.008    2.973790   -5.202579    0.485309
   7 H     1.0000    0     1.008    0.240002   -3.621801    0.876540

--------------------------------
INTERNAL COORDINATES (ANGSTROEM)
--------------------------------
 C      0   0   0     0.000000000000     0.00000000     0.00000000
 C      1   0   0     1.341822848562     0.00000000     0.00000000
 N      2   1   0     1.388340663931   126.54024874     0.00000000
 H      1   2   3     1.094413718183   121.67153747   357.20214430
 H      1   2   3     1.090106311682   120.62180030   175.49211887
 H      2   1   3     1.096695813399   119.91120382   183.70432756
 H      3   2   1     1.016930792170   114.55996492    18.79158608
 H      3   2   1     1.015093817377   114.58785931   150.13491119

---------------------------
INTERNAL COORDINATES (A.U.)
---------------------------
 C      0   0   0     0.000000000000     0.00000000     0.00000000
 C      1   0   0     2.535677704021     0.00000000     0.00000000
 N      2   1   0     2.623583635415   126.54024874     0.00000000
 H      1   2   3     2.068142204572   121.67153747   357.20214430
 H      1   2   3     2.060002385938   120.62180030   175.49211887
 H      2   1   3     2.072454739542   119.91120382   183.70432756
 H      3   2   1     1.921720694352   114.55996492    18.79158608
 H      3   2   1     1.918249315080   114.58785931   150.13491119



           ************************************************************
           *        Program running with 6 parallel MPI-processes     *
           *              working on a common directory               *
           ************************************************************
 One Electron integrals                  ... done
 Pre-screening matrix                    ... done


           ************************************************************
           *        Program running with 6 parallel MPI-processes     *
           *              working on a common directory               *
           ************************************************************

Diagonalization of the overlap matrix:
Smallest eigenvalue                        ... 3.300e-03
Time for diagonalization                   ...    0.001 sec
Threshold for overlap eigenvalues          ... 1.000e-08
Number of eigenvalues below threshold      ... 0
Time for construction of square roots      ...    0.001 sec
Total time needed                          ...    0.002 sec

-------------------
DFT GRID GENERATION
-------------------

General Integration Accuracy     IntAcc      ...  4.340
Radial Grid Type                 RadialGrid  ... Gauss-Chebyshev
Angular Grid (max. acc.)         AngularGrid ... Lebedev-110
Angular grid pruning method      GridPruning ... 3 (G Style)
Weight generation scheme         WeightScheme... Becke
Basis function cutoff            BFCut       ...    1.0000e-11
Integration weight cutoff        WCut        ...    1.0000e-14
Grids for H and He will be reduced by one unit

# of grid points (after initial pruning)     ...   8984 (   0.0 sec)
# of grid points (after weights+screening)   ...   8662 (   0.0 sec)
nearest neighbour list constructed           ...    0.0 sec
Grid point re-assignment to atoms done       ...    0.0 sec
Grid point division into batches done        ...    0.0 sec
Reduced shell lists constructed in    0.0 sec

Total number of grid points                  ...     8662
Total number of batches                      ...      138
Average number of points per batch           ...       62
Average number of grid points per atom       ...     1083
Average number of shells per batch           ...    31.62 (95.83%)
Average number of basis functions per batch  ...    64.21 (95.83%)
Average number of large shells per batch     ...    29.83 (94.33%)
Average number of large basis fcns per batch ...    60.50 (94.22%)
Maximum spatial batch extension              ...   2.92,  3.54, 20.25 au
Average spatial batch extension              ...   0.28,  0.32,  0.68 au

Time for grid setup =    0.029 sec

--------------------
COSX GRID GENERATION
--------------------

General Integration Accuracy     IntAcc      ...  3.340
Radial Grid Type                 RadialGrid  ... Gauss-Chebyshev
Angular Grid (max. acc.)         AngularGrid ... Lebedev-50
Angular grid pruning method      GridPruning ... 3 (G Style)
Weight generation scheme         WeightScheme... Becke
Basis function cutoff            BFCut       ...    1.0000e-11
Integration weight cutoff        WCut        ...    1.0000e-14
Grids for H and He will be reduced by one unit

# of grid points (after initial pruning)     ...   3326 (   0.0 sec)
# of grid points (after weights+screening)   ...   3208 (   0.0 sec)
nearest neighbour list constructed           ...    0.0 sec
Grid point re-assignment to atoms done       ...    0.0 sec
Grid point division into batches done        ...    0.0 sec
Reduced shell lists constructed in    0.0 sec

Total number of grid points                  ...     3208
Total number of batches                      ...       54
Average number of points per batch           ...       59
Average number of grid points per atom       ...      401
Average number of shells per batch           ...    29.70 (90.00%)
Average number of basis functions per batch  ...    60.30 (90.00%)
Average number of large shells per batch     ...    28.20 (94.95%)
Average number of large basis fcns per batch ...    57.00 (94.53%)
Maximum spatial batch extension              ...   3.04,  3.51, 17.26 au
Average spatial batch extension              ...   0.33,  0.36,  1.20 au

Overlap Fitting                  UseSFitting ... on
Constructing numerical overlap ... done (      0.0 sec)
Inverting numerical overlap    ... done (      0.0 sec)
Obtaining analytic overlap     ... done (      0.0 sec)
Final contraction and storage  ... done (      0.0 sec)


General Integration Accuracy     IntAcc      ...  3.670
Radial Grid Type                 RadialGrid  ... Gauss-Chebyshev
Angular Grid (max. acc.)         AngularGrid ... Lebedev-50
Angular grid pruning method      GridPruning ... 3 (G Style)
Weight generation scheme         WeightScheme... Becke
Basis function cutoff            BFCut       ...    1.0000e-11
Integration weight cutoff        WCut        ...    1.0000e-14
Grids for H and He will be reduced by one unit

# of grid points (after initial pruning)     ...   4298 (   0.0 sec)
# of grid points (after weights+screening)   ...   4142 (   0.0 sec)
nearest neighbour list constructed           ...    0.0 sec
Grid point re-assignment to atoms done       ...    0.0 sec
Grid point division into batches done        ...    0.0 sec
Reduced shell lists constructed in    0.0 sec

Total number of grid points                  ...     4142
Total number of batches                      ...       69
Average number of points per batch           ...       60
Average number of grid points per atom       ...      518
Average number of shells per batch           ...    30.46 (92.31%)
Average number of basis functions per batch  ...    61.85 (92.31%)
Average number of large shells per batch     ...    28.77 (94.44%)
Average number of large basis fcns per batch ...    58.31 (94.28%)
Maximum spatial batch extension              ...   3.09,  3.10, 18.54 au
Average spatial batch extension              ...   0.31,  0.35,  0.84 au

Overlap Fitting                  UseSFitting ... on
Constructing numerical overlap ... done (      0.0 sec)
Inverting numerical overlap    ... done (      0.0 sec)
Obtaining analytic overlap     ... done (      0.0 sec)
Final contraction and storage  ... done (      0.0 sec)


General Integration Accuracy     IntAcc      ...  4.010
Radial Grid Type                 RadialGrid  ... Gauss-Chebyshev
Angular Grid (max. acc.)         AngularGrid ... Lebedev-110
Angular grid pruning method      GridPruning ... 3 (G Style)
Weight generation scheme         WeightScheme... Becke
Basis function cutoff            BFCut       ...    1.0000e-11
Integration weight cutoff        WCut        ...    1.0000e-14
Grids for H and He will be reduced by one unit

# of grid points (after initial pruning)     ...   7744 (   0.0 sec)
# of grid points (after weights+screening)   ...   7473 (   0.0 sec)
nearest neighbour list constructed           ...    0.0 sec
Grid point re-assignment to atoms done       ...    0.0 sec
Grid point division into batches done        ...    0.0 sec
Reduced shell lists constructed in    0.0 sec

Total number of grid points                  ...     7473
Total number of batches                      ...      122
Average number of points per batch           ...       61
Average number of grid points per atom       ...      934
Average number of shells per batch           ...    31.50 (95.45%)
Average number of basis functions per batch  ...    63.95 (95.45%)
Average number of large shells per batch     ...    29.86 (94.81%)
Average number of large basis fcns per batch ...    60.59 (94.74%)
Maximum spatial batch extension              ...   3.18,  3.51, 19.01 au
Average spatial batch extension              ...   0.30,  0.32,  0.76 au

Overlap Fitting                  UseSFitting ... on
Constructing numerical overlap ... done (      0.0 sec)
Inverting numerical overlap    ... done (      0.0 sec)
Obtaining analytic overlap     ... done (      0.0 sec)
Final contraction and storage  ... done (      0.0 sec)

Time for X-Grid setup             =    0.170 sec
--------------
SCF ITERATIONS
--------------
ITER       Energy         Delta-E        Max-DP      RMS-DP      [F,P]     Damp
               ***  Starting incremental Fock matrix formation  ***
                      *** Initiating the SOSCF procedure ***
                      *** Re-Reading the Fockian *** 
                      *** Removing any level shift *** 
ITER      Energy       Delta-E        Grad      Rot      Max-DP    RMS-DP
  0   -133.86543363 -133.8654336262  0.003266  0.003266  0.010619  0.000611
               *** Restarting incremental Fock matrix formation ***
  1   -133.86599979  -0.0005661590  0.001116  0.002123  0.003823  0.000267
  2   -133.86604341  -0.0000436269  0.000701  0.001406  0.002641  0.000123
  3   -133.86604937  -0.0000059603  0.000653  0.001162  0.001555  0.000072
  4   -133.86605428  -0.0000049073  0.000282  0.000572  0.000887  0.000038
  5   -133.86605485  -0.0000005694  0.000180  0.000155  0.000283  0.000019
  6   -133.86605546  -0.0000006155  0.000020  0.000042  0.000063  0.000003
  7   -133.86605547  -0.0000000068  0.000023  0.000020  0.000042  0.000002
                  ***Gradient check signals convergence***
              ***Rediagonalizing the Fockian in SOSCF/NRSCF***

               *****************************************************
               *                     SUCCESS                       *
               *           SCF CONVERGED AFTER   8 CYCLES          *
               *****************************************************

Setting up the final grid:

General Integration Accuracy     IntAcc      ...  4.670
Radial Grid Type                 RadialGrid  ... Gauss-Chebyshev
Angular Grid (max. acc.)         AngularGrid ... Lebedev-302
Angular grid pruning method      GridPruning ... 3 (G Style)
Weight generation scheme         WeightScheme... Becke
Basis function cutoff            BFCut       ...    1.0000e-11
Integration weight cutoff        WCut        ...    1.0000e-14
Grids for H and He will be reduced by one unit

# of grid points (after initial pruning)     ...  35606 (   0.0 sec)
# of grid points (after weights+screening)   ...  34043 (   0.0 sec)
nearest neighbour list constructed           ...    0.0 sec
Grid point re-assignment to atoms done       ...    0.0 sec
Grid point division into batches done        ...    0.1 sec
Reduced shell lists constructed in    0.1 sec

Total number of grid points                  ...    34043
Total number of batches                      ...      537
Average number of points per batch           ...       63
Average number of grid points per atom       ...     4255
Average number of shells per batch           ...    32.38 (98.14%)
Average number of basis functions per batch  ...    65.59 (97.90%)
Average number of large shells per batch     ...    29.65 (91.55%)
Average number of large basis fcns per batch ...    59.80 (91.17%)
Maximum spatial batch extension              ...   3.19,  3.53, 14.06 au
Average spatial batch extension              ...   0.20,  0.21,  0.28 au

Final grid set up in    0.2 sec
Final integration                            ... done (   0.1 sec)
Change in XC energy                          ...    -0.000123476
Integrated number of electrons               ...    23.999965781
Previous integrated no of electrons          ...    23.997836877
Old exchange energy                            =     -3.745572647 Eh
New exchange energy                            =     -3.745373836 Eh
Exchange energy change after final integration =      0.000198811 Eh
Total energy after final integration           =   -133.865980136 Eh
Final COS-X integration done in                =     0.263 sec
Total Energy       :         -133.86598014 Eh           -3642.67851 eV
  Last Energy change         ...    7.4039e-11  Tolerance :   1.0000e-08
  Last MAX-Density change    ...    5.4644e-15  Tolerance :   1.0000e-07
             **** THE GBW FILE WAS UPDATED (g8raf/frag_08_c00001.gbw) ****
             **** DENSITY FILE WAS UPDATED (g8raf/frag_08_c00001.scfp.tmp) ****
             **** ENERGY FILE WAS UPDATED (g8raf/frag_08_c00001.en.tmp) ****
Total SCF time: 0 days 0 hours 0 min 3 sec 


-------------------------------------------------------------------------------
                          DFT DISPERSION CORRECTION                            
                                                                               
                              DFTD3 V3.1  Rev 1                                
                          USING Becke-Johnson damping                          
-------------------------------------------------------------------------------
-------------------------   ----------------
Dispersion correction           -0.006862174
-------------------------   ----------------


-------------------------   --------------------
FINAL SINGLE POINT ENERGY      -133.872842310505
-------------------------   --------------------



           ************************************************************
           *        Program running with 6 parallel MPI-processes     *
           *              working on a common directory               *
           ************************************************************
------------------------------------------------------------------------------
                         ORCA SCF GRADIENT CALCULATION
------------------------------------------------------------------------------

Gradient of the Kohn-Sham DFT energy:
Kohn-Sham wavefunction type      ... RKS
Hartree-Fock exchange scaling    ...    0.200
Number of operators              ...    1
Number of atoms                  ...    8
Basis set dimensions             ...   67
Integral neglect threshold       ... 2.5e-11
Integral primitive cutoff        ... 2.5e-12

Nuclear repulsion gradient       ... done
One Electron Gradient            ... done
Pre-screening matrix             ... done
RI-J gradient                    ... done
COSX-gradient                    ... done
Exchange-correlation gradient    ... done
Dispersion correction            ... done

------------------
CARTESIAN GRADIENT
------------------

   1   C   :   -0.000971736   -0.000268245    0.000167172
   2   C   :   -0.001927973   -0.003574881   -0.000532309
   3   N   :    0.001483121    0.001559159    0.002228411
   4   H   :    0.000065399    0.000066885   -0.000548396
   5   H   :    0.000244112   -0.000078783    0.000335809
   6   H   :   -0.000100665    0.000262679   -0.000070437
   7   H   :    0.000581364    0.000403157   -0.000486892
   8   H   :   -0.000277663    0.001295518   -0.000771488

Difference to translation invariance:
           :   -0.0009040403   -0.0003345111    0.0003218708

Norm of the cartesian gradient     ...    0.0055750527
RMS gradient                       ...    0.0011380029
MAX gradient                       ...    0.0035748813

-------
TIMINGS
-------

Total SCF gradient time            ...        1.057 sec

One electron gradient       ....       0.009 sec  (  0.9%)
Prescreening matrices       ....       0.016 sec  (  1.5%)
RI-J Coulomb gradient       ....       0.162 sec  ( 15.3%)
COSX gradient               ....       0.268 sec  ( 25.4%)
XC gradient                 ....       0.248 sec  ( 23.4%)
------------------------------------------------------------------------------
                         ORCA GEOMETRY RELAXATION STEP
------------------------------------------------------------------------------

Reading the OPT-File                    .... done
Getting information on internals        .... done
Copying old internal coords+grads       .... done
Making the new internal coordinates     .... (new redundants).... done
Validating the new internal coordinates .... (new redundants).... done
Calculating the B-matrix                .... done
Calculating the G,G- and P matrices     .... done
Transforming gradient to internals      .... done
Projecting the internal gradient        .... done
Number of atoms                         ....   8
Number of internal coordinates          ....  24
Current Energy                          ....  -133.872842311 Eh
Current gradient norm                   ....     0.005575053 Eh/bohr
Maximum allowed component of the step   ....  0.300
Current trust radius                    ....  0.300
Updating the Hessian (BFGS)             .... done
Forming the augmented Hessian           .... done
Diagonalizing the augmented Hessian     .... done
Last element of RFO vector              ....  0.999446201
Lowest eigenvalues of augmented Hessian:
 -0.000082926  0.030046294  0.036805872  0.040965514  0.042631269
Length of the computed step             ....  0.033294438
The final length of the internal step   ....  0.033294438
Converting the step to cartesian space:
 Initial RMS(Int)=    0.0067961986
Transforming coordinates:
 Iter   0:  RMS(Cart)=    0.0073567887 RMS(Int)=    0.0067937932
 Iter   1:  RMS(Cart)=    0.0000391076 RMS(Int)=    0.0000387059
 Iter   2:  RMS(Cart)=    0.0000004871 RMS(Int)=    0.0000004823
 Iter   3:  RMS(Cart)=    0.0000000059 RMS(Int)=    0.0000000061
done
Storing new coordinates                 .... done

                                .--------------------.
          ----------------------|Geometry convergence|-------------------------
          Item                value                   Tolerance       Converged
          ---------------------------------------------------------------------
          Energy change      -0.0012308329            0.0001000000      NO
          RMS gradient        0.0009270862            0.0020000000      YES
          MAX gradient        0.0039396937            0.0030000000      NO
          RMS step            0.0067961986            0.0200000000      YES
          MAX step            0.0158546825            0.0300000000      YES
          ........................................................
          Max(Bonds)      0.0043      Max(Angles)    0.47
          Max(Dihed)        0.91      Max(Improp)    0.00
          ---------------------------------------------------------------------

The optimization has not yet converged - more geometry cycles are needed


    ---------------------------------------------------------------------------
                         Redundant Internal Coordinates
                            (Angstroem and degrees)

        Definition                    Value    dE/dq     Step     New-Value
    ----------------------------------------------------------------------------
     1. B(C   1,C   0)                1.3418 -0.000367  0.0005    1.3423   
     2. B(N   2,C   1)                1.3883 -0.003940  0.0043    1.3927   
     3. B(H   3,C   0)                1.0944 -0.000021  0.0002    1.0947   
     4. B(H   4,C   0)                1.0901  0.000128 -0.0001    1.0900   
     5. B(H   5,C   1)                1.0967  0.000242 -0.0003    1.0964   
     6. B(H   6,N   2)                1.0169 -0.000099  0.0001    1.0171   
     7. B(H   7,N   2)                1.0151 -0.000266  0.0003    1.0154   
     8. A(H   3,C   0,H   4)          117.69 -0.000378    0.08    117.76   
     9. A(C   1,C   0,H   4)          120.62  0.000201   -0.04    120.58   
    10. A(C   1,C   0,H   3)          121.67  0.000175   -0.04    121.63   
    11. A(N   2,C   1,H   5)          113.46  0.000182   -0.04    113.42   
    12. A(C   0,C   1,H   5)          119.91 -0.000154    0.02    119.93   
    13. A(C   0,C   1,N   2)          126.54 -0.000020    0.01    126.55   
    14. A(C   1,N   2,H   6)          114.56 -0.000486    0.02    114.58   
    15. A(H   6,N   2,H   7)          111.92  0.001425   -0.47    111.46   
    16. A(C   1,N   2,H   7)          114.59 -0.000896    0.10    114.68   
    17. D(H   5,C   1,C   0,H   4)     -0.80  0.000293   -0.45     -1.25   
    18. D(H   5,C   1,C   0,H   3)   -179.09  0.000379   -0.57   -179.66   
    19. D(N   2,C   1,C   0,H   4)    175.49  0.000468   -0.79    174.70   
    20. D(N   2,C   1,C   0,H   3)     -2.80  0.000554   -0.91     -3.71   
    21. D(H   6,N   2,C   1,H   5)   -164.71 -0.000086   -0.31   -165.02   
    22. D(H   7,N   2,C   1,C   0)    150.13  0.000490   -0.57    149.57   
    23. D(H   6,N   2,C   1,C   0)     18.79 -0.000241    0.01     18.80   
    24. D(H   7,N   2,C   1,H   5)    -33.37  0.000645   -0.89    -34.25   
    ----------------------------------------------------------------------------

         *************************************************************
         *                GEOMETRY OPTIMIZATION CYCLE   3            *
         *************************************************************
---------------------------------
CARTESIAN COORDINATES (ANGSTROEM)
---------------------------------
  C      3.057322   -0.588097    0.005924
  C      1.723328   -0.736360    0.020442
  N      1.022218   -1.939260   -0.011986
  H      3.731110   -1.450586    0.025512
  H      3.504403    0.404301   -0.052050
  H      1.074440    0.147068   -0.005557
  H      1.570084   -2.755395    0.249156
  H      0.128394   -1.922271    0.469560

----------------------------
CARTESIAN COORDINATES (A.U.)
----------------------------
  NO LB      ZA    FRAG     MASS         X           Y           Z
   0 C     6.0000    0    12.011    5.777502   -1.111342    0.011194
   1 C     6.0000    0    12.011    3.256618   -1.391519    0.038629
   2 N     7.0000    0    14.007    1.931713   -3.664671   -0.022649
   3 H     1.0000    0     1.008    7.050776   -2.741210    0.048210
   4 H     1.0000    0     1.008    6.622362    0.764019   -0.098361
   5 H     1.0000    0     1.008    2.030397    0.277918   -0.010501
   6 H     1.0000    0     1.008    2.967029   -5.206941    0.470836
   7 H     1.0000    0     1.008    0.242630   -3.632566    0.887339

--------------------------------
INTERNAL COORDINATES (ANGSTROEM)
--------------------------------
 C      0   0   0     0.000000000000     0.00000000     0.00000000
 C      1   0   0     1.342286841425     0.00000000     0.00000000
 N      2   1   0     1.392685888857   126.54573988     0.00000000
 H      1   2   3     1.094651401672   121.63468673   356.29325790
 H      1   2   3     1.089998214118   120.58216086   174.70413587
 H      2   1   3     1.096438007952   119.92755636   184.04533913
 H      3   2   1     1.017067785922   114.57787620    18.80269486
 H      3   2   1     1.015429040311   114.68576096   149.56791976

---------------------------
INTERNAL COORDINATES (A.U.)
---------------------------
 C      0   0   0     0.000000000000     0.00000000     0.00000000
 C      1   0   0     2.536554523460     0.00000000     0.00000000
 N      2   1   0     2.631794920516   126.54573988     0.00000000
 H      1   2   3     2.068591361274   121.63468673   356.29325790
 H      1   2   3     2.059798111147   120.58216086   174.70413587
 H      2   1   3     2.071967557851   119.92755636   184.04533913
 H      3   2   1     1.921979575026   114.57787620    18.80269486
 H      3   2   1     1.918882794619   114.68576096   149.56791976



           ************************************************************
           *        Program running with 6 parallel MPI-processes     *
           *              working on a common directory               *
           ************************************************************
 One Electron integrals                  ... done
 Pre-screening matrix                    ... done


           ************************************************************
           *        Program running with 6 parallel MPI-processes     *
           *              working on a common directory               *
           ************************************************************

Diagonalization of the overlap matrix:
Smallest eigenvalue                        ... 3.317e-03
Time for diagonalization                   ...    0.002 sec
Threshold for overlap eigenvalues          ... 1.000e-08
Number of eigenvalues below threshold      ... 0
Time for construction of square roots      ...    0.001 sec
Total time needed                          ...    0.002 sec

-------------------
DFT GRID GENERATION
-------------------

General Integration Accuracy     IntAcc      ...  4.340
Radial Grid Type                 RadialGrid  ... Gauss-Chebyshev
Angular Grid (max. acc.)         AngularGrid ... Lebedev-110
Angular grid pruning method      GridPruning ... 3 (G Style)
Weight generation scheme         WeightScheme... Becke
Basis function cutoff            BFCut       ...    1.0000e-11
Integration weight cutoff        WCut        ...    1.0000e-14
Grids for H and He will be reduced by one unit

# of grid points (after initial pruning)     ...   8984 (   0.0 sec)
# of grid points (after weights+screening)   ...   8664 (   0.0 sec)
nearest neighbour list constructed           ...    0.0 sec
Grid point re-assignment to atoms done       ...    0.0 sec
Grid point division into batches done        ...    0.0 sec
Reduced shell lists constructed in    0.0 sec

Total number of grid points                  ...     8664
Total number of batches                      ...      137
Average number of points per batch           ...       63
Average number of grid points per atom       ...     1083
Average number of shells per batch           ...    31.62 (95.83%)
Average number of basis functions per batch  ...    64.21 (95.83%)
Average number of large shells per batch     ...    29.83 (94.33%)
Average number of large basis fcns per batch ...    60.50 (94.22%)
Maximum spatial batch extension              ...   2.92,  3.57, 20.26 au
Average spatial batch extension              ...   0.28,  0.31,  0.65 au

Time for grid setup =    0.033 sec

--------------------
COSX GRID GENERATION
--------------------

General Integration Accuracy     IntAcc      ...  3.340
Radial Grid Type                 RadialGrid  ... Gauss-Chebyshev
Angular Grid (max. acc.)         AngularGrid ... Lebedev-50
Angular grid pruning method      GridPruning ... 3 (G Style)
Weight generation scheme         WeightScheme... Becke
Basis function cutoff            BFCut       ...    1.0000e-11
Integration weight cutoff        WCut        ...    1.0000e-14
Grids for H and He will be reduced by one unit

# of grid points (after initial pruning)     ...   3326 (   0.0 sec)
# of grid points (after weights+screening)   ...   3208 (   0.0 sec)
nearest neighbour list constructed           ...    0.0 sec
Grid point re-assignment to atoms done       ...    0.0 sec
Grid point division into batches done        ...    0.0 sec
Reduced shell lists constructed in    0.0 sec

Total number of grid points                  ...     3208
Total number of batches                      ...       54
Average number of points per batch           ...       59
Average number of grid points per atom       ...      401
Average number of shells per batch           ...    29.70 (90.00%)
Average number of basis functions per batch  ...    60.30 (90.00%)
Average number of large shells per batch     ...    28.30 (95.29%)
Average number of large basis fcns per batch ...    57.10 (94.69%)
Maximum spatial batch extension              ...   3.04,  3.49, 17.26 au
Average spatial batch extension              ...   0.33,  0.36,  1.20 au

Overlap Fitting                  UseSFitting ... on
Constructing numerical overlap ... done (      0.0 sec)
Inverting numerical overlap    ... done (      0.0 sec)
Obtaining analytic overlap     ... done (      0.0 sec)
Final contraction and storage  ... done (      0.0 sec)


General Integration Accuracy     IntAcc      ...  3.670
Radial Grid Type                 RadialGrid  ... Gauss-Chebyshev
Angular Grid (max. acc.)         AngularGrid ... Lebedev-50
Angular grid pruning method      GridPruning ... 3 (G Style)
Weight generation scheme         WeightScheme... Becke
Basis function cutoff            BFCut       ...    1.0000e-11
Integration weight cutoff        WCut        ...    1.0000e-14
Grids for H and He will be reduced by one unit

# of grid points (after initial pruning)     ...   4298 (   0.0 sec)
# of grid points (after weights+screening)   ...   4143 (   0.0 sec)
nearest neighbour list constructed           ...    0.0 sec
Grid point re-assignment to atoms done       ...    0.0 sec
Grid point division into batches done        ...    0.0 sec
Reduced shell lists constructed in    0.0 sec

Total number of grid points                  ...     4143
Total number of batches                      ...       69
Average number of points per batch           ...       60
Average number of grid points per atom       ...      518
Average number of shells per batch           ...    30.46 (92.31%)
[...]
                      INITIAL GUESS DONE (   0.0 sec)
                      ------------------
-------------------
DFT GRID GENERATION
-------------------

General Integration Accuracy     IntAcc      ...  4.340
Radial Grid Type                 RadialGrid  ... Gauss-Chebyshev
Angular Grid (max. acc.)         AngularGrid ... Lebedev-110
Angular grid pruning method      GridPruning ... 3 (G Style)
Weight generation scheme         WeightScheme... Becke
Basis function cutoff            BFCut       ...    1.0000e-11
Integration weight cutoff        WCut        ...    1.0000e-14
Grids for H and He will be reduced by one unit

# of grid points (after initial pruning)     ...   8984 (   0.0 sec)
# of grid points (after weights+screening)   ...   8665 (   0.0 sec)
nearest neighbour list constructed           ...    0.0 sec
Grid point re-assignment to atoms done       ...    0.0 sec
Grid point division into batches done        ...    0.0 sec
Reduced shell lists constructed in    0.0 sec

Total number of grid points                  ...     8665
Total number of batches                      ...      139
Average number of points per batch           ...       62
Average number of grid points per atom       ...     1083
Average number of shells per batch           ...    31.68 (96.00%)
Average number of basis functions per batch  ...    64.32 (96.00%)
Average number of large shells per batch     ...    29.92 (94.44%)
Average number of large basis fcns per batch ...    60.56 (94.15%)
Maximum spatial batch extension              ...   2.92,  3.56, 20.25 au
Average spatial batch extension              ...   0.30,  0.31,  0.64 au

Time for grid setup =    0.029 sec

--------------------
COSX GRID GENERATION
--------------------

General Integration Accuracy     IntAcc      ...  3.340
Radial Grid Type                 RadialGrid  ... Gauss-Chebyshev
Angular Grid (max. acc.)         AngularGrid ... Lebedev-50
Angular grid pruning method      GridPruning ... 3 (G Style)
Weight generation scheme         WeightScheme... Becke
Basis function cutoff            BFCut       ...    1.0000e-11
Integration weight cutoff        WCut        ...    1.0000e-14
Grids for H and He will be reduced by one unit

# of grid points (after initial pruning)     ...   3326 (   0.0 sec)
# of grid points (after weights+screening)   ...   3207 (   0.0 sec)
nearest neighbour list constructed           ...    0.0 sec
Grid point re-assignment to atoms done       ...    0.0 sec
Grid point division into batches done        ...    0.0 sec
Reduced shell lists constructed in    0.0 sec

Total number of grid points                  ...     3207
Total number of batches                      ...       55
Average number of points per batch           ...       58
Average number of grid points per atom       ...      401
Average number of shells per batch           ...    30.00 (90.91%)
Average number of basis functions per batch  ...    60.91 (90.91%)
Average number of large shells per batch     ...    28.73 (95.76%)
Average number of large basis fcns per batch ...    58.00 (95.22%)
Maximum spatial batch extension              ...   3.18,  3.48, 17.26 au
Average spatial batch extension              ...   0.37,  0.39,  1.21 au

Overlap Fitting                  UseSFitting ... on
Constructing numerical overlap ... done (      0.0 sec)
Inverting numerical overlap    ... done (      0.0 sec)
Obtaining analytic overlap     ... done (      0.0 sec)
Final contraction and storage  ... done (      0.0 sec)


General Integration Accuracy     IntAcc      ...  3.670
Radial Grid Type                 RadialGrid  ... Gauss-Chebyshev
Angular Grid (max. acc.)         AngularGrid ... Lebedev-50
Angular grid pruning method      GridPruning ... 3 (G Style)
Weight generation scheme         WeightScheme... Becke
Basis function cutoff            BFCut       ...    1.0000e-11
Integration weight cutoff        WCut        ...    1.0000e-14
Grids for H and He will be reduced by one unit

# of grid points (after initial pruning)     ...   4298 (   0.0 sec)
# of grid points (after weights+screening)   ...   4144 (   0.0 sec)
nearest neighbour list constructed           ...    0.0 sec
Grid point re-assignment to atoms done       ...    0.0 sec
Grid point division into batches done        ...    0.0 sec
Reduced shell lists constructed in    0.0 sec

Total number of grid points                  ...     4144
Total number of batches                      ...       69
Average number of points per batch           ...       60
Average number of grid points per atom       ...      518
Average number of shells per batch           ...    30.46 (92.31%)
Average number of basis functions per batch  ...    61.85 (92.31%)
Average number of large shells per batch     ...    28.62 (93.94%)
Average number of large basis fcns per batch ...    57.85 (93.53%)
Maximum spatial batch extension              ...   3.11,  3.11, 18.82 au
Average spatial batch extension              ...   0.32,  0.35,  0.99 au

Overlap Fitting                  UseSFitting ... on
Constructing numerical overlap ... done (      0.0 sec)
Inverting numerical overlap    ... done (      0.0 sec)
Obtaining analytic overlap     ... done (      0.0 sec)
Final contraction and storage  ... done (      0.0 sec)


General Integration Accuracy     IntAcc      ...  4.010
Radial Grid Type                 RadialGrid  ... Gauss-Chebyshev
Angular Grid (max. acc.)         AngularGrid ... Lebedev-110
Angular grid pruning method      GridPruning ... 3 (G Style)
Weight generation scheme         WeightScheme... Becke
Basis function cutoff            BFCut       ...    1.0000e-11
Integration weight cutoff        WCut        ...    1.0000e-14
Grids for H and He will be reduced by one unit

# of grid points (after initial pruning)     ...   7744 (   0.0 sec)
# of grid points (after weights+screening)   ...   7473 (   0.0 sec)
nearest neighbour list constructed           ...    0.0 sec
Grid point re-assignment to atoms done       ...    0.0 sec
Grid point division into batches done        ...    0.0 sec
Reduced shell lists constructed in    0.0 sec

Total number of grid points                  ...     7473
Total number of batches                      ...      122
Average number of points per batch           ...       61
Average number of grid points per atom       ...      934
Average number of shells per batch           ...    31.50 (95.45%)
Average number of basis functions per batch  ...    63.95 (95.45%)
Average number of large shells per batch     ...    29.73 (94.37%)
Average number of large basis fcns per batch ...    60.27 (94.24%)
Maximum spatial batch extension              ...   3.17,  3.51, 19.01 au
Average spatial batch extension              ...   0.31,  0.33,  0.73 au

Overlap Fitting                  UseSFitting ... on
Constructing numerical overlap ... done (      0.0 sec)
Inverting numerical overlap    ... done (      0.0 sec)
Obtaining analytic overlap     ... done (      0.0 sec)
Final contraction and storage  ... done (      0.0 sec)

Time for X-Grid setup             =    0.141 sec
--------------
SCF ITERATIONS
--------------
ITER       Energy         Delta-E        Max-DP      RMS-DP      [F,P]     Damp
               ***  Starting incremental Fock matrix formation  ***
                      *** Initiating the SOSCF procedure ***
                      *** Re-Reading the Fockian *** 
                      *** Removing any level shift *** 
ITER      Energy       Delta-E        Grad      Rot      Max-DP    RMS-DP
  0   -133.86608078 -133.8660807798  0.000812  0.000812  0.004495  0.000151
               *** Restarting incremental Fock matrix formation ***
  1   -133.86611290  -0.0000321202  0.000270  0.001051  0.001386  0.000068
  2   -133.86611583  -0.0000029298  0.000193  0.000584  0.000665  0.000040
  3   -133.86611561   0.0000002190  0.000233  0.000323  0.000371  0.000024
  4   -133.86611633  -0.0000007164  0.000021  0.000051  0.000075  0.000004
  5   -133.86611631   0.0000000183  0.000029  0.000029  0.000048  0.000002
                  ***Gradient check signals convergence***
              ***Rediagonalizing the Fockian in SOSCF/NRSCF***

               *****************************************************
               *                     SUCCESS                       *
               *           SCF CONVERGED AFTER   6 CYCLES          *
               *****************************************************

Setting up the final grid:

General Integration Accuracy     IntAcc      ...  4.670
Radial Grid Type                 RadialGrid  ... Gauss-Chebyshev
Angular Grid (max. acc.)         AngularGrid ... Lebedev-302
Angular grid pruning method      GridPruning ... 3 (G Style)
Weight generation scheme         WeightScheme... Becke
Basis function cutoff            BFCut       ...    1.0000e-11
Integration weight cutoff        WCut        ...    1.0000e-14
Grids for H and He will be reduced by one unit

# of grid points (after initial pruning)     ...  35606 (   0.0 sec)
# of grid points (after weights+screening)   ...  34043 (   0.0 sec)
nearest neighbour list constructed           ...    0.0 sec
Grid point re-assignment to atoms done       ...    0.0 sec
Grid point division into batches done        ...    0.1 sec
Reduced shell lists constructed in    0.2 sec

Total number of grid points                  ...    34043
Total number of batches                      ...      536
Average number of points per batch           ...       63
Average number of grid points per atom       ...     4255
Average number of shells per batch           ...    32.40 (98.17%)
Average number of basis functions per batch  ...    65.65 (97.98%)
Average number of large shells per batch     ...    29.65 (91.52%)
Average number of large basis fcns per batch ...    59.82 (91.13%)
Maximum spatial batch extension              ...   3.18,  3.52, 14.08 au
Average spatial batch extension              ...   0.20,  0.21,  0.29 au

Final grid set up in    0.2 sec
Final integration                            ... done (   0.1 sec)
Change in XC energy                          ...    -0.000125327
Integrated number of electrons               ...    23.999962158
Previous integrated no of electrons          ...    23.997824001
Old exchange energy                            =     -3.744814361 Eh
New exchange energy                            =     -3.744627735 Eh
Exchange energy change after final integration =      0.000186626 Eh
Total energy after final integration           =   -133.866055031 Eh
Final COS-X integration done in                =     0.266 sec

----------------
TOTAL SCF ENERGY
----------------

Total Energy       :         -133.86605503 Eh           -3642.68055 eV

Components:
Nuclear Repulsion  :           71.23034189 Eh            1938.27614 eV
Electronic Energy  :         -205.09639692 Eh           -5580.95669 eV
One Electron Energy:         -320.59797787 Eh           -8723.91449 eV
Two Electron Energy:          115.50158095 Eh            3142.95780 eV

Virial components:
Potential Energy   :         -266.78253566 Eh           -7259.52186 eV
Kinetic Energy     :          132.91648063 Eh            3616.84131 eV
Virial Ratio       :            2.00714414


DFT components:
N(Alpha)           :       11.999981078927 electrons
N(Beta)            :       11.999981078927 electrons
N(Total)           :       23.999962157853 electrons
E(X)               :      -14.861595135891 Eh       
E(C)               :       -0.920683016909 Eh       
E(XC)              :      -15.782278152800 Eh       

---------------
SCF CONVERGENCE
---------------

  Last Energy change         ...   -2.0718e-08  Tolerance :   1.0000e-08
  Last MAX-Density change    ...    1.2876e-13  Tolerance :   1.0000e-07
  Last RMS-Density change    ...    1.9096e-15  Tolerance :   5.0000e-09
  Last Orbital Gradient      ...    1.7584e-06  Tolerance :   1.0000e-05
  Last Orbital Rotation      ...    2.5228e-06  Tolerance :   1.0000e-05

             **** THE GBW FILE WAS UPDATED (g8raf/frag_08_c00001.gbw) ****
             **** DENSITY FILE WAS UPDATED (g8raf/frag_08_c00001.scfp.tmp) ****
             **** ENERGY FILE WAS UPDATED (g8raf/frag_08_c00001.en.tmp) ****
----------------
ORBITAL ENERGIES
----------------

  NO   OCC          E(Eh)            E(eV) 
   0   2.0000     -14.329469      -389.9247 
   1   2.0000     -10.210210      -277.8340 
   2   2.0000     -10.152656      -276.2678 
   3   2.0000      -0.899584       -24.4789 
   4   2.0000      -0.719207       -19.5706 
   5   2.0000      -0.572216       -15.5708 
   6   2.0000      -0.509145       -13.8545 
   7   2.0000      -0.454846       -12.3770 
   8   2.0000      -0.399935       -10.8828 
   9   2.0000      -0.356780        -9.7085 
  10   2.0000      -0.330169        -8.9843 
  11   2.0000      -0.200878        -5.4662 
  12   0.0000       0.045211         1.2302 
  13   0.0000       0.063020         1.7149 
  14   0.0000       0.088458         2.4071 
  15   0.0000       0.111099         3.0232 
  16   0.0000       0.150173         4.0864 
  17   0.0000       0.162100         4.4110 
  18   0.0000       0.297207         8.0874 
  19   0.0000       0.335586         9.1318 
  20   0.0000       0.427808        11.6412 
  21   0.0000       0.469545        12.7770 
  22   0.0000       0.499003        13.5786 
  23   0.0000       0.516880        14.0650 
  24   0.0000       0.564322        15.3560 
  25   0.0000       0.577471        15.7138 
  26   0.0000       0.588023        16.0009 
  27   0.0000       0.663526        18.0555 
  28   0.0000       0.692883        18.8543 
  29   0.0000       0.711577        19.3630 
  30   0.0000       0.769587        20.9415 
  31   0.0000       0.790377        21.5073 
  32   0.0000       0.845191        22.9988 
  33   0.0000       0.893226        24.3059 
  34   0.0000       0.971110        26.4252 
  35   0.0000       1.002988        27.2927 
  36   0.0000       1.035737        28.1838 
  37   0.0000       1.058182        28.7946 
  38   0.0000       1.101498        29.9733 
  39   0.0000       1.277600        34.7653 
  40   0.0000       1.345868        36.6229 
  41   0.0000       1.403603        38.1940 
  42   0.0000       1.498045        40.7639 
  43   0.0000       1.522337        41.4249 
  44   0.0000       1.547291        42.1039 
  45   0.0000       1.597239        43.4631 
  46   0.0000       1.602620        43.6095 
  47   0.0000       1.667452        45.3737 
  48   0.0000       1.688343        45.9422 
  49   0.0000       1.710161        46.5358 
  50   0.0000       1.805496        49.1300 
  51   0.0000       1.868001        50.8309 
  52   0.0000       1.939203        52.7684 
  53   0.0000       1.946857        52.9767 
  54   0.0000       1.955575        53.2139 
  55   0.0000       2.111100        57.4460 
  56   0.0000       2.118128        57.6372 
  57   0.0000       2.195197        59.7343 
  58   0.0000       2.274013        61.8790 
  59   0.0000       2.382714        64.8369 
  60   0.0000       2.475917        67.3731 
  61   0.0000       2.539250        69.0965 
  62   0.0000       2.592590        70.5480 
  63   0.0000       2.725413        74.1623 
  64   0.0000       2.777720        75.5856 
  65   0.0000       2.978640        81.0529 
  66   0.0000       3.184284        86.6488 
-------
TIMINGS
-------

Total SCF time: 0 days 0 hours 0 min 3 sec 

Total time                  ....       3.145 sec
Sum of individual times     ....       3.119 sec  ( 99.2%)

Fock matrix formation       ....       2.652 sec  ( 84.3%)
  Split-RI-J                ....       1.032 sec  ( 38.9% of F)
  Chain of spheres X        ....       1.386 sec  ( 52.3% of F)
  XC integration            ....       0.203 sec  (  7.7% of F)
    Basis function eval.    ....       0.068 sec  ( 33.5% of XC)
    Density eval.           ....       0.025 sec  ( 12.1% of XC)
    XC-Functional eval.     ....       0.014 sec  (  6.9% of XC)
    XC-Potential eval.      ....       0.045 sec  ( 22.2% of XC)
Diagonalization             ....       0.001 sec  (  0.0%)
Density matrix formation    ....       0.001 sec  (  0.0%)
Population analysis         ....       0.000 sec  (  0.0%)
Initial guess               ....       0.001 sec  (  0.0%)
Orbital Transformation      ....       0.000 sec  (  0.0%)
Orbital Orthonormalization  ....       0.001 sec  (  0.0%)
DIIS solution               ....       0.000 sec  (  0.0%)
SOSCF solution              ....       0.076 sec  (  2.4%)
Grid generation             ....       0.387 sec  ( 12.3%)


-------------------------------------------------------------------------------
                          DFT DISPERSION CORRECTION                            
                                                                               
                              DFTD3 V3.1  Rev 1                                
                          USING Becke-Johnson damping                          
-------------------------------------------------------------------------------
The B3LYP functional is recognized
Active option DFTDOPT                   ...         4   

molecular C6(AA) [au] = 521.084657 


            DFT-D V3
 parameters
 s6 scaling factor         :     1.0000 
 a1 scaling factor         :     0.3981 
 s8 scaling factor         :     1.9889 
 a2 scaling factor         :     4.4211 
 ad hoc parameters k1-k3   :    16.0000     1.3333    -4.0000 

 Edisp/kcal,au: -4.303639422134  -0.006858285239 
 E6   /kcal   :  -2.127713251 
 E8   /kcal   :  -2.175926171 
 % E8         :  50.560141260 

-------------------------   ----------------
Dispersion correction           -0.006858285
-------------------------   ----------------


-------------------------   --------------------
FINAL SINGLE POINT ENERGY      -133.872913316224
-------------------------   --------------------

                                *** OPTIMIZATION RUN DONE ***

                            ***************************************
                            *     ORCA property calculations      *
                            ***************************************

                                    ---------------------
                                    Active property flags
                                    ---------------------
   (+) Dipole Moment


------------------------------------------------------------------------------
                       ORCA ELECTRIC PROPERTIES CALCULATION
------------------------------------------------------------------------------

Dipole Moment Calculation                       ... on
Quadrupole Moment Calculation                   ... off
Polarizability Calculation                      ... off
GBWName                                         ... g8raf/frag_08_c00001.gbw
Electron density file                           ... g8raf/frag_08_c00001.scfp.tmp
The origin for moment calculation is the CENTER OF MASS  = ( 3.589029, -2.135031  0.034288)

-------------
DIPOLE MOMENT
-------------
                                X             Y             Z
Electronic contribution:     -0.90631      -0.36240      -0.15878
Nuclear contribution   :      0.47790       0.06059       0.56318
                        -----------------------------------------
Total Dipole Moment    :     -0.42841      -0.30181       0.40440
                        -----------------------------------------
Magnitude (a.u.)       :      0.66194
Magnitude (Debye)      :      1.68252


Timings for individual modules:

Sum of individual times         ...       24.916 sec (=   0.415 min)
GTO integral calculation        ...        2.803 sec (=   0.047 min)  11.2 %
SCF iterations                  ...       17.518 sec (=   0.292 min)  70.3 %
SCF Gradient evaluation         ...        4.489 sec (=   0.075 min)  18.0 %
Geometry relaxation             ...        0.106 sec (=   0.002 min)   0.4 %
                             ****ORCA TERMINATED NORMALLY****
TOTAL RUN TIME: 0 days 0 hours 0 minutes 26 seconds 42 msec
