
                                 *****************
                                 * O   R   C   A *
                                 *****************

           --- An Ab Initio, DFT and Semiempirical electronic structure package ---

                  #######################################################
                  #                        -***-                        #
                  #  Department of molecular theory and spectroscopy    #
                  #              Directorship: Frank Neese              #
                  # Max Planck Institute for Chemical Energy Conversion #
                  #                  D-45470 Muelheim/Ruhr              #
                  #                       Germany                       #
                  #                                                     #
                  #                  All rights reserved                #
                  #                        -***-                        #
                  #######################################################


                         Program Version 4.0.1.2 - RELEASE -


 With contributions from (in alphabetic order):
   Daniel Aravena         : Magnetic Properties
   Michael Atanasov       : Ab Initio Ligand Field Theory
   Ute Becker             : Parallelization
   Martin Brehm           : Molecular dynamics
   Dmytro Bykov           : SCF Hessian
   Vijay G. Chilkuri      : MRCI spin determinant printing
   Dipayan Datta          : RHF DLPNO-CCSD density
   Achintya Kumar Dutta   : EOM-CC, STEOM-CC
   Dmitry Ganyushin       : Spin-Orbit,Spin-Spin,Magnetic field MRCI
   Yang Guo               : DLPNO-NEVPT2, CIM, IAO-localization
   Andreas Hansen         : Spin unrestricted coupled pair/coupled cluster methods
   Lee Huntington         : MR-EOM, pCC
   Robert Izsak           : Overlap fitted RIJCOSX, COSX-SCS-MP3, EOM
   Christian Kollmar      : KDIIS, OOCD, Brueckner-CCSD(T), CCSD density
   Simone Kossmann        : Meta GGA functionals, TD-DFT gradient, OOMP2, MP2 Hessian
   Martin Krupicka        : AUTO-CI
   Dagmar Lenk            : GEPOL surface
   Dimitrios Liakos       : Extrapolation schemes; parallel MDCI
   Dimitrios Manganas     : ROCIS; embedding schemes
   Dimitrios Pantazis     : SARC Basis sets
   Taras Petrenko         : DFT Hessian,TD-DFT gradient, ASA, ECA, R-Raman, ABS, FL, XAS/XES, NRVS
   Peter Pinski           : DLPNO-MP2
   Christoph Reimann      : Effective Core Potentials
   Marius Retegan         : Local ZFS, SOC
   Christoph Riplinger    : Optimizer, TS searches, QM/MM, DLPNO-CCSD(T), (RO)-DLPNO pert. Triples
   Tobias Risthaus        : Range-separated hybrids, TD-DFT gradient, RPA, STAB
   Michael Roemelt        : Restricted open shell CIS
   Masaaki Saitow         : Open-shell DLPNO
   Barbara Sandhoefer     : DKH picture change effects
   Kantharuban Sivalingam : CASSCF convergence, NEVPT2, FIC-MRCI
   Georgi Stoychev        : AutoAux
   Boris Wezisla          : Elementary symmetry handling
   Frank Wennmohs         : Technical directorship


 We gratefully acknowledge several colleagues who have allowed us to
 interface, adapt or use parts of their codes:
   Stefan Grimme, W. Hujo, H. Kruse,             : VdW corrections, initial TS optimization,
                  C. Bannwarth                     DFT functionals, gCP, sTDA/sTD-DF
   Ed Valeev                                     : LibInt (2-el integral package), F12 methods
   Garnet Chan, S. Sharma, J. Yang, R. Olivares  : DMRG
   Ulf Ekstrom                                   : XCFun DFT Library
   Mihaly Kallay                                 : mrcc  (arbitrary order and MRCC methods)
   Andreas Klamt, Michael Diedenhofen            : otool_cosmo (COSMO solvation model)
   Jiri Pittner, Ondrej Demel                    : Mk-CCSD
   Frank Weinhold                                : gennbo (NPA and NBO analysis)
   Christopher J. Cramer and Donald G. Truhlar   : smd solvation model


 Your calculation uses the libint2 library for the computation of 2-el integrals
 For citations please refer to: http://libint.valeyev.net

 This ORCA versions uses:
   CBLAS   interface :  Fast vector & matrix operations
   LAPACKE interface :  Fast linear algebra routines
   SCALAPACK package :  Parallel linear algebra routines


Your calculation utilizes the atom-pairwise dispersion correction
with the Becke-Johnson damping scheme (D3BJ)
Cite in your paper:
S.Grimme, S.Ehrlich, L.Goerigk, J Comput Chem, (2011), 32, 1456–1465 
S.Grimme, J.Antony, S.Ehrlich and H.Krieg, J.Chem.Phys., 132, (2010), 154104 
   

Your calculation utilizes the basis: cc-pVDZ 
       H, B-Ne : Obtained from the ccRepo (grant-hill.group.shef.ac.uk/ccrepo) Feb. 2017
                 T. H. Dunning, Jr., J. Chem. Phys. 90, 1007 (1989)
            He : Obtained from the ccRepo (grant-hill.group.shef.ac.uk/ccrepo) Feb. 2017
                 D. E. Woon, T. H. Dunning, Jr., J. Chem. Phys. 100, 2975 (1994)
  Li-Be, Na-Mg : Obtained from the ccRepo (grant-hill.group.shef.ac.uk/ccrepo) Feb. 2017
                 B. P. Prascher, D. E. Woon, K. A. Peterson, T. H. Dunning, Jr., A. K. Wilson, Theor. Chem. Acc. 128, 69 (2011)
         Al-Ar : Obtained from the ccRepo (grant-hill.group.shef.ac.uk/ccrepo) Feb. 2017
                 D. E. Woon, T. H. Dunning, Jr., J. Chem. Phys. 98, 1358 (1993)
            Ca : Obtained from the Peterson Research Group Website (tyr0.chem.wsu.edu/~kipeters) Feb. 2017
                 J. Koput, K. A. Peterson, J. Phys. Chem. 106, 9595 (2002)
         Sc-Zn : Obtained from the ccRepo (grant-hill.group.shef.ac.uk/ccrepo) Feb. 2017
                 N. B. Balabanov, K. A. Peterson, J. Chem. Phys. 123, 064107 (2005)
                 N. B. Balabanov, K. A. Peterson, J. Chem. Phys. 125, 074110 (2006)
         Ga-Kr : Obtained from the ccRepo (grant-hill.group.shef.ac.uk/ccrepo) Feb. 2017
                 A. K. Wilson, D. E. Woon, K. A. Peterson, T. H. Dunning, Jr., J. Chem. Phys. 110, 7667 (1999)

Your calculation utilizes the auxiliary basis: def2/J
   F. Weigend, Phys. Chem. Chem. Phys. 8, 1057 (2006).

================================================================================
                                        WARNINGS
                       Please study these warnings very carefully!
================================================================================

Warning: TCutStore was < 0. Adjusted to Thresh (uncritical)

WARNING: Geometry Optimization
  ===> : Switching off AutoStart
         For restart on a previous wavefunction, please use MOREAD

INFO   : the flag for use of LIBINT has been found!

================================================================================
                                       INPUT FILE
================================================================================
NAME = g8raf/frag_20_c00001.com
|  1> %pal nprocs 6 end
|  2> %maxcore 1000
|  3> ! b3lyp TIGHTSCF nopop D3BJ
|  4> ! cc-pvdz def2/J RIJCOSX
|  5> ! Opt
|  6> 
|  7> %geom
|  8> maxiter 60
|  9> TolE 1e-4
| 10> TolRMSG 2e-3
| 11> TolMaxG 3e-3
| 12> TolRMSD 2e-2
| 13> TolMaxD 3e-2
| 14> end
| 15> 
| 16> *xyz 0 1
| 17> C 1.6537 -0.7082 -0.0039
| 18> N 1.0433 -1.9234 -0.0109
| 19> N 0.9903 0.3892 -0.0066
| 20> C 1.5913 1.6136 -0.0002
| 21> N 2.8571 1.8452 0.0091
| 22> H 2.752 -0.7996 0.0038
| 23> H 1.5198 -2.685 0.4575
| 24> H 0.0484 -1.8784 0.1858
| 25> H 0.9065 2.479 0.0008
| 26> H 3.4062 0.9925 0.0007
| 27> *
| 28> 
| 29> 
| 30>                          ****END OF INPUT****
================================================================================

                       *****************************
                       * Geometry Optimization Run *
                       *****************************

Geometry optimization settings:
Update method            Update   .... BFGS
Choice of coordinates    CoordSys .... Redundant Internals
Initial Hessian          InHess   .... Almoef's Model

Convergence Tolerances:
Energy Change            TolE     ....  1.0000e-04 Eh
Max. Gradient            TolMAXG  ....  3.0000e-03 Eh/bohr
RMS Gradient             TolRMSG  ....  2.0000e-03 Eh/bohr
Max. Displacement        TolMAXD  ....  3.0000e-02 bohr
RMS Displacement         TolRMSD  ....  2.0000e-02 bohr

------------------------------------------------------------------------------
                        ORCA OPTIMIZATION COORDINATE SETUP
------------------------------------------------------------------------------

The optimization will be done in new redundant internal coordinates
Making redundant internal coordinates   ...  (new redundants) done
Evaluating the initial hessian          ...  (Almloef) done
Evaluating the coordinates              ...  done
Calculating the B-matrix                .... done
Calculating the G-matrix                .... done
Diagonalizing the G-matrix              .... done
The first mode is                       ....    6
The number of degrees of freedom        ....   24

    -----------------------------------------------------------------
                    Redundant Internal Coordinates


    -----------------------------------------------------------------
         Definition                    Initial Value    Approx d2E/dq
    -----------------------------------------------------------------
      1. B(N   1,C   0)                  1.3599         0.625009   
      2. B(N   2,C   0)                  1.2823         0.831078   
      3. B(C   3,N   2)                  1.3640         0.615764   
      4. B(N   4,C   3)                  1.2868         0.817429   
      5. B(H   5,C   0)                  1.1021         0.344414   
      6. B(H   6,N   1)                  1.0132         0.427720   
      7. B(H   7,N   1)                  1.0152         0.424589   
      8. B(H   8,C   3)                  1.1036         0.342587   
      9. B(H   9,N   4)                  1.0142         0.426023   
     10. A(N   1,C   0,H   5)          111.9148         0.348585   
     11. A(N   2,C   0,H   5)          125.9109         0.365879   
     12. A(N   1,C   0,N   2)          122.1743         0.452344   
     13. A(C   0,N   1,H   6)          117.2736         0.358452   
     14. A(H   6,N   1,H   7)          113.8704         0.301781   
     15. A(C   0,N   1,H   7)          113.5338         0.358004   
     16. A(C   0,N   2,C   3)          122.7008         0.451120   
     17. A(N   2,C   3,N   4)          126.5136         0.449766   
     18. A(N   4,C   3,H   8)          117.9851         0.364511   
     19. A(N   2,C   3,H   8)          115.5008         0.347399   
     20. A(C   3,N   4,H   9)          112.4060         0.375071   
     21. D(H   7,N   1,C   0,N   2)    -12.6607         0.031672   
     22. D(H   6,N   1,C   0,H   5)     31.2076         0.031672   
     23. D(H   6,N   1,C   0,N   2)   -148.8076         0.031672   
     24. D(H   7,N   1,C   0,H   5)    167.3546         0.031672   
     25. D(C   3,N   2,C   0,H   5)      0.0099         0.053731   
     26. D(C   3,N   2,C   0,N   1)   -179.9726         0.053731   
     27. D(N   4,C   3,N   2,C   0)     -0.0002         0.027791   
     28. D(H   8,C   3,N   2,C   0)   -179.7547         0.027791   
     29. D(H   9,N   4,C   3,H   8)   -179.5948         0.051768   
     30. D(H   9,N   4,C   3,N   2)      0.6561         0.051768   
    -----------------------------------------------------------------

Number of atoms                         .... 10
Number of degrees of freedom            .... 30

         *************************************************************
         *                GEOMETRY OPTIMIZATION CYCLE   1            *
         *************************************************************
---------------------------------
CARTESIAN COORDINATES (ANGSTROEM)
---------------------------------
  C      1.653700   -0.708200   -0.003900
  N      1.043300   -1.923400   -0.010900
  N      0.990300    0.389200   -0.006600
  C      1.591300    1.613600   -0.000200
  N      2.857100    1.845200    0.009100
  H      2.752000   -0.799600    0.003800
  H      1.519800   -2.685000    0.457500
  H      0.048400   -1.878400    0.185800
  H      0.906500    2.479000    0.000800
  H      3.406200    0.992500    0.000700

----------------------------
CARTESIAN COORDINATES (A.U.)
----------------------------
  NO LB      ZA    FRAG     MASS         X           Y           Z
   0 C     6.0000    0    12.011    3.125040   -1.338304   -0.007370
   1 N     7.0000    0    14.007    1.971551   -3.634699   -0.020598
   2 N     7.0000    0    14.007    1.871396    0.735481   -0.012472
   3 C     6.0000    0    12.011    3.007121    3.049262   -0.000378
   4 N     7.0000    0    14.007    5.399137    3.486923    0.017197
   5 H     1.0000    0     1.008    5.200526   -1.511025    0.007181
   6 H     1.0000    0     1.008    2.872006   -5.073915    0.864550
   7 H     1.0000    0     1.008    0.091463   -3.549662    0.351111
   8 H     1.0000    0     1.008    1.713037    4.684631    0.001512
   9 H     1.0000    0     1.008    6.436785    1.875553    0.001323

--------------------------------
INTERNAL COORDINATES (ANGSTROEM)
--------------------------------
 C      0   0   0     0.000000000000     0.00000000     0.00000000
 N      1   0   0     1.359907423320     0.00000000     0.00000000
 N      1   2   0     1.282339116615   122.17434917     0.00000000
 C      3   1   2     1.363963826500   122.70081332   180.02739739
 N      4   3   1     1.286846801294   126.51364464     0.00000000
 H      1   2   3     1.102123468582   111.91475562   180.01523651
 H      2   1   3     1.013156142951   117.27357309   211.19241005
 H      2   1   3     1.015156096371   113.53375081   347.33933103
 H      4   3   1     1.103571112344   115.50078770   180.24525016
 H      5   4   3     1.014237970104   112.40598952     0.65608151

---------------------------
INTERNAL COORDINATES (A.U.)
---------------------------
 C      0   0   0     0.000000000000     0.00000000     0.00000000
 N      1   0   0     2.569852597561     0.00000000     0.00000000
 N      1   2   0     2.423269741216   122.17434917     0.00000000
 C      3   1   2     2.577518088660   122.70081332   180.02739739
 N      4   3   1     2.431788030758   126.51364464     0.00000000
 H      1   2   3     2.082711521388   111.91475562   180.01523651
 H      2   1   3     1.914587641078   117.27357309   211.19241005
 H      2   1   3     1.918367005322   113.53375081   347.33933103
 H      4   3   1     2.085447171637   115.50078770   180.24525016
 H      5   4   3     1.916631998120   112.40598952     0.65608151

---------------------
BASIS SET INFORMATION
---------------------
There are 3 groups of distinct atoms

 Group   1 Type C   : 17s4p1d contracted to 3s2p1d pattern {881/31/1}
 Group   2 Type N   : 17s4p1d contracted to 3s2p1d pattern {881/31/1}
 Group   3 Type H   : 4s1p contracted to 2s1p pattern {31/1}

Atom   0C    basis set group =>   1
Atom   1N    basis set group =>   2
Atom   2N    basis set group =>   2
Atom   3C    basis set group =>   1
Atom   4N    basis set group =>   2
Atom   5H    basis set group =>   3
Atom   6H    basis set group =>   3
Atom   7H    basis set group =>   3
Atom   8H    basis set group =>   3
Atom   9H    basis set group =>   3
-------------------------------
AUXILIARY BASIS SET INFORMATION
-------------------------------
There are 3 groups of distinct atoms

 Group   1 Type C   : 12s5p4d2f1g contracted to 6s4p3d1f1g pattern {711111/2111/211/2/1}
 Group   2 Type N   : 12s5p4d2f1g contracted to 6s4p3d1f1g pattern {711111/2111/211/2/1}
 Group   3 Type H   : 5s2p1d contracted to 3s1p1d pattern {311/2/1}

Atom   0C    basis set group =>   1
Atom   1N    basis set group =>   2
Atom   2N    basis set group =>   2
Atom   3C    basis set group =>   1
Atom   4N    basis set group =>   2
Atom   5H    basis set group =>   3
Atom   6H    basis set group =>   3
Atom   7H    basis set group =>   3
Atom   8H    basis set group =>   3
Atom   9H    basis set group =>   3


           ************************************************************
           *        Program running with 6 parallel MPI-processes     *
           *              working on a common directory               *
           ************************************************************
------------------------------------------------------------------------------
                           ORCA GTO INTEGRAL CALCULATION
                           -- RI-GTO INTEGRALS CHOSEN --
------------------------------------------------------------------------------

                         BASIS SET STATISTICS AND STARTUP INFO

Gaussian basis set:
 # of primitive gaussian shells          ...  135
 # of primitive gaussian functions       ...  205
 # of contracted shells                  ...   45
 # of contracted basis functions         ...   95
 Highest angular momentum                ...    2
 Maximum contraction depth               ...    8
Auxiliary gaussian basis set:
 # of primitive gaussian shells          ...  160
 # of primitive gaussian functions       ...  430
 # of contracted shells                  ...  100
 # of contracted aux-basis functions     ...  300
 Highest angular momentum                ...    4
 Maximum contraction depth               ...    7
Ratio of auxiliary to basis functions    ...  3.16
Integral package used                  ... LIBINT
 One Electron integrals                  ... done
 Ordering auxiliary basis shells         ... done
 Integral threshhold             Thresh  ...  2.500e-11
 Primitive cut-off               TCut    ...  2.500e-12
 Pre-screening matrix                    ... done
 Shell pair data                         ... 
 Ordering of the shell pairs             ... done (   0.000 sec) 1030 of 1035 pairs
 Determination of significant pairs      ... done (   0.000 sec)
 Creation of shell pair data             ... done (   0.000 sec)
 Storage of shell pair data              ... done (   0.001 sec)
 Shell pair data done in (   0.001 sec)
 Computing two index integrals           ... done
 Cholesky decomposition of the V-matrix  ... done


Timings:
 Total evaluation time                   ...   0.276 sec (  0.005 min)
 One electron matrix time                ...   0.019 sec (  0.000 min) =  6.8%
 Schwartz matrix evaluation time         ...   0.182 sec (  0.003 min) = 65.8%
 Two index repulsion integral time       ...   0.051 sec (  0.001 min) = 18.5%
 Cholesky decomposition of V             ...   0.002 sec (  0.000 min) =  0.9%
 Three index repulsion integral time     ...   0.000 sec (  0.000 min) =  0.0%



           ************************************************************
           *        Program running with 6 parallel MPI-processes     *
           *              working on a common directory               *
           ************************************************************
-------------------------------------------------------------------------------
                                 ORCA SCF
-------------------------------------------------------------------------------

------------
SCF SETTINGS
------------
Hamiltonian:
 Density Functional     Method          .... DFT(GTOs)
 Exchange Functional    Exchange        .... B88
   X-Alpha parameter    XAlpha          ....  0.666667
   Becke's b parameter  XBeta           ....  0.004200
 Correlation Functional Correlation     .... LYP
 LDA part of GGA corr.  LDAOpt          .... VWN-5
 Gradients option       PostSCFGGA      .... off
 Hybrid DFT is turned on
   Fraction HF Exchange ScalHFX         ....  0.200000
   Scaling of DF-GGA-X  ScalDFX         ....  0.720000
   Scaling of DF-GGA-C  ScalDFC         ....  0.810000
   Scaling of DF-LDA-C  ScalLDAC        ....  1.000000
   Perturbative correction              ....  0.000000
   NL short-range parameter             ....  4.800000
 RI-approximation to the Coulomb term is turned on
   Number of auxiliary basis functions  .... 300
   RIJ-COSX (HFX calculated with COS-X)).... on


General Settings:
 Integral files         IntName         .... g8raf/frag_20_c00001
 Hartree-Fock type      HFTyp           .... RHF
 Total Charge           Charge          ....    0
 Multiplicity           Mult            ....    1
 Number of Electrons    NEL             ....   38
 Basis Dimension        Dim             ....   95
 Nuclear Repulsion      ENuc            ....    162.3204242343 Eh

Convergence Acceleration:
 DIIS                   CNVDIIS         .... on
   Start iteration      DIISMaxIt       ....    12
   Startup error        DIISStart       ....  0.200000
   # of expansion vecs  DIISMaxEq       ....     5
   Bias factor          DIISBfac        ....   1.050
   Max. coefficient     DIISMaxC        ....  10.000
 Newton-Raphson         CNVNR           .... off
 SOSCF                  CNVSOSCF        .... on
   Start iteration      SOSCFMaxIt      ....   150
   Startup grad/error   SOSCFStart      ....  0.003300
 Level Shifting         CNVShift        .... on
   Level shift para.    LevelShift      ....    0.2500
   Turn off err/grad.   ShiftErr        ....    0.0010
 Zerner damping         CNVZerner       .... off
 Static damping         CNVDamp         .... on
   Fraction old density DampFac         ....    0.7000
   Max. Damping (<1)    DampMax         ....    0.9800
   Min. Damping (>=0)   DampMin         ....    0.0000
   Turn off err/grad.   DampErr         ....    0.1000
 Fernandez-Rico         CNVRico         .... off

SCF Procedure:
 Maximum # iterations   MaxIter         ....   125
 SCF integral mode      SCFMode         .... Direct
   Integral package                     .... LIBINT
 Reset frequeny         DirectResetFreq ....    20
 Integral Threshold     Thresh          ....  2.500e-11 Eh
 Primitive CutOff       TCut            ....  2.500e-12 Eh

Convergence Tolerance:
 Convergence Check Mode ConvCheckMode   .... Total+1el-Energy
 Convergence forced     ConvForced      .... 0
 Energy Change          TolE            ....  1.000e-08 Eh
 1-El. energy change                    ....  1.000e-05 Eh
 Orbital Gradient       TolG            ....  1.000e-05
 Orbital Rotation angle TolX            ....  1.000e-05
 DIIS Error             TolErr          ....  5.000e-07


Diagonalization of the overlap matrix:
Smallest eigenvalue                        ... 4.901e-03
Time for diagonalization                   ...    0.003 sec
Threshold for overlap eigenvalues          ... 1.000e-08
Number of eigenvalues below threshold      ... 0
Time for construction of square roots      ...    0.001 sec
Total time needed                          ...    0.004 sec

-------------------
DFT GRID GENERATION
-------------------

General Integration Accuracy     IntAcc      ...  4.340
Radial Grid Type                 RadialGrid  ... Gauss-Chebyshev
Angular Grid (max. acc.)         AngularGrid ... Lebedev-110
Angular grid pruning method      GridPruning ... 3 (G Style)
Weight generation scheme         WeightScheme... Becke
Basis function cutoff            BFCut       ...    1.0000e-11
Integration weight cutoff        WCut        ...    1.0000e-14
Grids for H and He will be reduced by one unit

# of grid points (after initial pruning)     ...  12388 (   0.0 sec)
# of grid points (after weights+screening)   ...  11818 (   0.0 sec)
nearest neighbour list constructed           ...    0.0 sec
Grid point re-assignment to atoms done       ...    0.0 sec
Grid point division into batches done        ...    0.0 sec
Reduced shell lists constructed in    0.0 sec

Total number of grid points                  ...    11818
Total number of batches                      ...      191
Average number of points per batch           ...       61
Average number of grid points per atom       ...     1182
Average number of shells per batch           ...    40.64 (90.30%)
Average number of basis functions per batch  ...    84.76 (89.22%)
Average number of large shells per batch     ...    34.45 (84.79%)
Average number of large basis fcns per batch ...    71.67 (84.55%)
Maximum spatial batch extension              ...   9.35, 11.01, 19.64 au
Average spatial batch extension              ...   0.32,  0.33,  0.44 au

Time for grid setup =    0.047 sec

------------------------------
INITIAL GUESS: MODEL POTENTIAL
------------------------------
Loading Hartree-Fock densities                     ... done
Calculating cut-offs                               ... done
Setting up the integral package                    ... done
Initializing the effective Hamiltonian             ... done
Starting the Coulomb interaction                   ... done (   0.0 sec)
Reading the grid                                   ... done
Mapping shells                                     ... done
Starting the XC term evaluation                    ... done (   0.0 sec)
  promolecular density results
     # of electrons  =     38.000088166
     EX              =    -31.464764558
     EC              =     -1.280364848
     EX+EC           =    -32.745129406
Transforming the Hamiltonian                       ... done (   0.0 sec)
Diagonalizing the Hamiltonian                      ... done (   0.0 sec)
Back transforming the eigenvectors                 ... done (   0.0 sec)
Now organizing SCF variables                       ... done
                      ------------------
                      INITIAL GUESS DONE (   0.2 sec)
                      ------------------
--------------------
COSX GRID GENERATION
--------------------

General Integration Accuracy     IntAcc      ...  3.340
Radial Grid Type                 RadialGrid  ... Gauss-Chebyshev
Angular Grid (max. acc.)         AngularGrid ... Lebedev-50
Angular grid pruning method      GridPruning ... 3 (G Style)
Weight generation scheme         WeightScheme... Becke
Basis function cutoff            BFCut       ...    1.0000e-11
Integration weight cutoff        WCut        ...    1.0000e-14
Grids for H and He will be reduced by one unit

# of grid points (after initial pruning)     ...   4458 (   0.0 sec)
# of grid points (after weights+screening)   ...   4277 (   0.0 sec)
nearest neighbour list constructed           ...    0.0 sec
Grid point re-assignment to atoms done       ...    0.0 sec
Grid point division into batches done        ...    0.0 sec
Reduced shell lists constructed in    0.0 sec

Total number of grid points                  ...     4277
Total number of batches                      ...       72
Average number of points per batch           ...       59
Average number of grid points per atom       ...      428
Average number of shells per batch           ...    39.46 (87.69%)
Average number of basis functions per batch  ...    82.38 (86.72%)
Average number of large shells per batch     ...    34.77 (88.11%)
Average number of large basis fcns per batch ...    72.92 (88.52%)
Maximum spatial batch extension              ...   5.31,  7.15, 16.84 au
Average spatial batch extension              ...   0.36,  0.37,  0.75 au

Overlap Fitting                  UseSFitting ... on
Constructing numerical overlap ... done (      0.0 sec)
Inverting numerical overlap    ... done (      0.0 sec)
Obtaining analytic overlap     ... done (      0.0 sec)
Final contraction and storage  ... done (      0.0 sec)


General Integration Accuracy     IntAcc      ...  3.670
Radial Grid Type                 RadialGrid  ... Gauss-Chebyshev
Angular Grid (max. acc.)         AngularGrid ... Lebedev-50
Angular grid pruning method      GridPruning ... 3 (G Style)
Weight generation scheme         WeightScheme... Becke
Basis function cutoff            BFCut       ...    1.0000e-11
Integration weight cutoff        WCut        ...    1.0000e-14
Grids for H and He will be reduced by one unit

# of grid points (after initial pruning)     ...   5710 (   0.0 sec)
# of grid points (after weights+screening)   ...   5465 (   0.0 sec)
nearest neighbour list constructed           ...    0.0 sec
Grid point re-assignment to atoms done       ...    0.0 sec
Grid point division into batches done        ...    0.0 sec
Reduced shell lists constructed in    0.0 sec

Total number of grid points                  ...     5465
Total number of batches                      ...       88
Average number of points per batch           ...       62
Average number of grid points per atom       ...      546
Average number of shells per batch           ...    39.81 (88.47%)
Average number of basis functions per batch  ...    82.94 (87.30%)
Average number of large shells per batch     ...    34.75 (87.28%)
Average number of large basis fcns per batch ...    72.75 (87.72%)
Maximum spatial batch extension              ...   6.47,  9.30, 18.27 au
Average spatial batch extension              ...   0.37,  0.46,  0.79 au

Overlap Fitting                  UseSFitting ... on
Constructing numerical overlap ... done (      0.0 sec)
Inverting numerical overlap    ... done (      0.0 sec)
Obtaining analytic overlap     ... done (      0.0 sec)
Final contraction and storage  ... done (      0.0 sec)


General Integration Accuracy     IntAcc      ...  4.010
Radial Grid Type                 RadialGrid  ... Gauss-Chebyshev
Angular Grid (max. acc.)         AngularGrid ... Lebedev-110
Angular grid pruning method      GridPruning ... 3 (G Style)
Weight generation scheme         WeightScheme... Becke
Basis function cutoff            BFCut       ...    1.0000e-11
Integration weight cutoff        WCut        ...    1.0000e-14
Grids for H and He will be reduced by one unit

# of grid points (after initial pruning)     ...  10680 (   0.0 sec)
# of grid points (after weights+screening)   ...  10208 (   0.0 sec)
nearest neighbour list constructed           ...    0.0 sec
Grid point re-assignment to atoms done       ...    0.0 sec
Grid point division into batches done        ...    0.0 sec
Reduced shell lists constructed in    0.0 sec

Total number of grid points                  ...    10208
Total number of batches                      ...      164
Average number of points per batch           ...       62
Average number of grid points per atom       ...     1021
Average number of shells per batch           ...    40.66 (90.34%)
Average number of basis functions per batch  ...    84.86 (89.33%)
Average number of large shells per batch     ...    35.00 (86.09%)
Average number of large basis fcns per batch ...    73.07 (86.10%)
Maximum spatial batch extension              ...   8.82, 10.23, 18.62 au
Average spatial batch extension              ...   0.34,  0.35,  0.50 au

Overlap Fitting                  UseSFitting ... on
Constructing numerical overlap ... done (      0.0 sec)
Inverting numerical overlap    ... done (      0.0 sec)
Obtaining analytic overlap     ... done (      0.0 sec)
Final contraction and storage  ... done (      0.0 sec)

Time for X-Grid setup             =    0.176 sec
--------------
SCF ITERATIONS
--------------
ITER       Energy         Delta-E        Max-DP      RMS-DP      [F,P]     Damp
               ***  Starting incremental Fock matrix formation  ***
  0   -243.0777655290   0.000000000000 0.10270082  0.00386206  0.2794788 0.7000
  1   -243.1945521895  -0.116786660508 0.06914386  0.00272284  0.1184561 0.7000
                               ***Turning on DIIS***
  2   -243.2358184118  -0.041266222273 0.09740944  0.00407263  0.0399803 0.0000
  3   -243.2971450384  -0.061326626647 0.04509245  0.00193945  0.0797953 0.0000
  4   -243.3151929115  -0.018047873055 0.01567977  0.00067250  0.0162089 0.0000
  5   -243.3163308845  -0.001137972973 0.00588106  0.00023312  0.0052869 0.0000
                      *** Initiating the SOSCF procedure ***
                           *** Shutting down DIIS ***
                      *** Re-Reading the Fockian *** 
                      *** Removing any level shift *** 
ITER      Energy       Delta-E        Grad      Rot      Max-DP    RMS-DP
  6   -243.31643313  -0.0001022467  0.000560  0.000560  0.002549  0.000096
               *** Restarting incremental Fock matrix formation ***
  7   -243.31644828  -0.0000151492  0.000305  0.001036  0.001750  0.000070
  8   -243.31644951  -0.0000012294  0.000415  0.000646  0.000841  0.000040
  9   -243.31645155  -0.0000020446  0.000166  0.000334  0.000777  0.000029
 10   -243.31645176  -0.0000002065  0.000098  0.000180  0.000263  0.000008
 11   -243.31645199  -0.0000002326  0.000036  0.000136  0.000168  0.000007
 12   -243.31645200  -0.0000000054  0.000025  0.000055  0.000066  0.000003
 13   -243.31645202  -0.0000000180  0.000008  0.000019  0.000036  0.000002
 14   -243.31645201   0.0000000020  0.000010  0.000009  0.000027  0.000001
                  ***Gradient check signals convergence***
              ***Rediagonalizing the Fockian in SOSCF/NRSCF***

               *****************************************************
               *                     SUCCESS                       *
               *           SCF CONVERGED AFTER  15 CYCLES          *
               *****************************************************

Setting up the final grid:

General Integration Accuracy     IntAcc      ...  4.670
Radial Grid Type                 RadialGrid  ... Gauss-Chebyshev
Angular Grid (max. acc.)         AngularGrid ... Lebedev-302
Angular grid pruning method      GridPruning ... 3 (G Style)
Weight generation scheme         WeightScheme... Becke
Basis function cutoff            BFCut       ...    1.0000e-11
Integration weight cutoff        WCut        ...    1.0000e-14
Grids for H and He will be reduced by one unit

# of grid points (after initial pruning)     ...  48030 (   0.0 sec)
# of grid points (after weights+screening)   ...  45375 (   0.0 sec)
nearest neighbour list constructed           ...    0.0 sec
Grid point re-assignment to atoms done       ...    0.0 sec
Grid point division into batches done        ...    0.2 sec
Reduced shell lists constructed in    0.2 sec

Total number of grid points                  ...    45375
Total number of batches                      ...      714
Average number of points per batch           ...       63
Average number of grid points per atom       ...     4538
Average number of shells per batch           ...    39.56 (87.91%)
Average number of basis functions per batch  ...    82.36 (86.69%)
Average number of large shells per batch     ...    33.12 (83.72%)
Average number of large basis fcns per batch ...    68.65 (83.36%)
Maximum spatial batch extension              ...   9.58, 11.87, 17.24 au
Average spatial batch extension              ...   0.22,  0.23,  0.28 au

Final grid set up in    0.3 sec
Final integration                            ... done (   0.1 sec)
Change in XC energy                          ...     0.000040723
Integrated number of electrons               ...    37.999925074
Previous integrated no of electrons          ...    38.000947599
Old exchange energy                            =     -6.392680133 Eh
New exchange energy                            =     -6.392378687 Eh
Exchange energy change after final integration =      0.000301446 Eh
Total energy after final integration           =   -243.316109847 Eh
Final COS-X integration done in                =     0.605 sec

----------------
TOTAL SCF ENERGY
----------------

Total Energy       :         -243.31610985 Eh           -6620.96795 eV

Components:
Nuclear Repulsion  :          162.32042423 Eh            4416.96330 eV
Electronic Energy  :         -405.63653408 Eh          -11037.93125 eV
One Electron Energy:         -650.20613937 Eh          -17693.00855 eV
Two Electron Energy:          244.56960528 Eh            6655.07730 eV

Virial components:
Potential Energy   :         -485.23670152 Eh          -13203.96192 eV
Kinetic Energy     :          241.92059168 Eh            6582.99397 eV
Virial Ratio       :            2.00576850


DFT components:
N(Alpha)           :       18.999962536966 electrons
N(Beta)            :       18.999962536966 electrons
N(Total)           :       37.999925073932 electrons
E(X)               :      -25.422417917616 Eh       
E(C)               :       -1.516210122697 Eh       
E(XC)              :      -26.938628040313 Eh       

---------------
SCF CONVERGENCE
---------------

  Last Energy change         ...   -1.0573e-09  Tolerance :   1.0000e-08
  Last MAX-Density change    ...    4.5090e-13  Tolerance :   1.0000e-07
  Last RMS-Density change    ...    4.7475e-15  Tolerance :   5.0000e-09
  Last Orbital Gradient      ...    2.0245e-06  Tolerance :   1.0000e-05
  Last Orbital Rotation      ...    8.0554e-06  Tolerance :   1.0000e-05

             **** THE GBW FILE WAS UPDATED (g8raf/frag_20_c00001.gbw) ****
             **** DENSITY FILE WAS UPDATED (g8raf/frag_20_c00001.scfp.tmp) ****
             **** ENERGY FILE WAS UPDATED (g8raf/frag_20_c00001.en.tmp) ****
----------------
ORBITAL ENERGIES
----------------

  NO   OCC          E(Eh)            E(eV) 
   0   2.0000     -14.368368      -390.9832 
   1   2.0000     -14.306175      -389.2908 
   2   2.0000     -14.287714      -388.7885 
   3   2.0000     -10.276522      -279.6384 
   4   2.0000     -10.235505      -278.5223 
   5   2.0000      -0.974327       -26.5128 
   6   2.0000      -0.915267       -24.9057 
   7   2.0000      -0.832726       -22.6596 
   8   2.0000      -0.667853       -18.1732 
   9   2.0000      -0.590943       -16.0804 
  10   2.0000      -0.555914       -15.1272 
  11   2.0000      -0.492446       -13.4001 
  12   2.0000      -0.465861       -12.6767 
  13   2.0000      -0.416143       -11.3238 
  14   2.0000      -0.404561       -11.0087 
  15   2.0000      -0.329601        -8.9689 
  16   2.0000      -0.280545        -7.6340 
  17   2.0000      -0.236871        -6.4456 
  18   2.0000      -0.233152        -6.3444 
  19   0.0000      -0.035297        -0.9605 
  20   0.0000       0.043237         1.1765 
  21   0.0000       0.061004         1.6600 
  22   0.0000       0.090836         2.4718 
  23   0.0000       0.111891         3.0447 
  24   0.0000       0.123305         3.3553 
  25   0.0000       0.181022         4.9259 
  26   0.0000       0.260570         7.0905 
  27   0.0000       0.307644         8.3714 
  28   0.0000       0.338096         9.2001 
  29   0.0000       0.364420         9.9164 
  30   0.0000       0.421123        11.4593 
  31   0.0000       0.444677        12.1003 
  32   0.0000       0.497612        13.5407 
  33   0.0000       0.515876        14.0377 
  34   0.0000       0.536460        14.5978 
  35   0.0000       0.551455        15.0059 
  36   0.0000       0.566888        15.4258 
  37   0.0000       0.626179        17.0392 
  38   0.0000       0.656457        17.8631 
  39   0.0000       0.681910        18.5557 
  40   0.0000       0.696675        18.9575 
  41   0.0000       0.734915        19.9981 
  42   0.0000       0.769297        20.9336 
  43   0.0000       0.794748        21.6262 
  44   0.0000       0.802443        21.8356 
  45   0.0000       0.844884        22.9905 
  46   0.0000       0.861233        23.4353 
  47   0.0000       0.888235        24.1701 
  48   0.0000       0.915694        24.9173 
  49   0.0000       0.924969        25.1697 
  50   0.0000       1.007184        27.4069 
  51   0.0000       1.048340        28.5268 
  52   0.0000       1.061427        28.8829 
  53   0.0000       1.095330        29.8054 
  54   0.0000       1.165095        31.7039 
  55   0.0000       1.211166        32.9575 
  56   0.0000       1.254764        34.1439 
  57   0.0000       1.288420        35.0597 
  58   0.0000       1.371007        37.3070 
  59   0.0000       1.424143        38.7529 
  60   0.0000       1.440061        39.1860 
  61   0.0000       1.455739        39.6127 
  62   0.0000       1.498528        40.7770 
  63   0.0000       1.534878        41.7662 
  64   0.0000       1.553869        42.2829 
  65   0.0000       1.583158        43.0799 
  66   0.0000       1.634527        44.4777 
  67   0.0000       1.664639        45.2971 
  68   0.0000       1.700698        46.2783 
  69   0.0000       1.742003        47.4023 
  70   0.0000       1.773405        48.2568 
  71   0.0000       1.819620        49.5144 
  72   0.0000       1.862662        50.6856 
  73   0.0000       1.931479        52.5582 
  74   0.0000       2.003480        54.5175 
  75   0.0000       2.027891        55.1817 
  76   0.0000       2.087830        56.8127 
  77   0.0000       2.137800        58.1725 
  78   0.0000       2.185947        59.4826 
  79   0.0000       2.218372        60.3650 
  80   0.0000       2.292028        62.3692 
  81   0.0000       2.305229        62.7285 
  82   0.0000       2.359880        64.2156 
  83   0.0000       2.412656        65.6517 
  84   0.0000       2.482175        67.5434 
  85   0.0000       2.503022        68.1107 
  86   0.0000       2.573803        70.0368 
  87   0.0000       2.592186        70.5370 
  88   0.0000       2.714747        73.8720 
  89   0.0000       2.766233        75.2730 
  90   0.0000       2.786499        75.8245 
  91   0.0000       2.879756        78.3622 
  92   0.0000       3.071217        83.5721 
  93   0.0000       3.121511        84.9406 
  94   0.0000       3.279838        89.2489 
-------
TIMINGS
-------

Total SCF time: 0 days 0 hours 0 min 8 sec 

Total time                  ....       8.718 sec
Sum of individual times     ....       8.684 sec  ( 99.6%)

Fock matrix formation       ....       7.873 sec  ( 90.3%)
  Split-RI-J                ....       2.255 sec  ( 28.6% of F)
  Chain of spheres X        ....       4.936 sec  ( 62.7% of F)
  COS-X 1 center corr.      ....       0.000 sec  (  0.0% of F)
  XC integration            ....       0.634 sec  (  8.1% of F)
    Basis function eval.    ....       0.221 sec  ( 34.9% of XC)
    Density eval.           ....       0.085 sec  ( 13.4% of XC)
    XC-Functional eval.     ....       0.035 sec  (  5.6% of XC)
    XC-Potential eval.      ....       0.169 sec  ( 26.6% of XC)
Diagonalization             ....       0.017 sec  (  0.2%)
Density matrix formation    ....       0.004 sec  (  0.0%)
Population analysis         ....       0.000 sec  (  0.0%)
Initial guess               ....       0.172 sec  (  2.0%)
Orbital Transformation      ....       0.000 sec  (  0.0%)
Orbital Orthonormalization  ....       0.000 sec  (  0.0%)
DIIS solution               ....       0.006 sec  (  0.1%)
SOSCF solution              ....       0.095 sec  (  1.1%)
Grid generation             ....       0.517 sec  (  5.9%)


-------------------------------------------------------------------------------
                          DFT DISPERSION CORRECTION                            
                                                                               
                              DFTD3 V3.1  Rev 1                                
                          USING Becke-Johnson damping                          
-------------------------------------------------------------------------------
The B3LYP functional is recognized
Active option DFTDOPT                   ...         4   

molecular C6(AA) [au] = 998.818525 


            DFT-D V3
 parameters
 s6 scaling factor         :     1.0000 
 a1 scaling factor         :     0.3981 
 s8 scaling factor         :     1.9889 
 a2 scaling factor         :     4.4211 
 ad hoc parameters k1-k3   :    16.0000     1.3333    -4.0000 

 Edisp/kcal,au: -7.246968441801  -0.011548778095 
 E6   /kcal   :  -3.528521400 
 E8   /kcal   :  -3.718447042 
 % E8         :  51.310379944 

-------------------------   ----------------
Dispersion correction           -0.011548778
-------------------------   ----------------


-------------------------   --------------------
FINAL SINGLE POINT ENERGY      -243.327658625064
-------------------------   --------------------



           ************************************************************
           *        Program running with 6 parallel MPI-processes     *
           *              working on a common directory               *
           ************************************************************
------------------------------------------------------------------------------
                         ORCA SCF GRADIENT CALCULATION
------------------------------------------------------------------------------

Gradient of the Kohn-Sham DFT energy:
Kohn-Sham wavefunction type      ... RKS
Hartree-Fock exchange scaling    ...    0.200
Number of operators              ...    1
Number of atoms                  ...   10
Basis set dimensions             ...   95
Integral neglect threshold       ... 2.5e-11
Integral primitive cutoff        ... 2.5e-12

Nuclear repulsion gradient       ... done
One Electron Gradient            ... done
Pre-screening matrix             ... done
RI-J gradient                    ... done
COSX-gradient                    ... done
Exchange-correlation gradient    ... done
Dispersion correction            ... done

------------------
CARTESIAN GRADIENT
------------------

   1   C   :   -0.001613709   -0.001909058   -0.004874014
   2   N   :    0.005219377    0.000842320   -0.000595197
   3   N   :    0.031806751    0.027717408    0.000748457
   4   C   :   -0.038823871   -0.012084182    0.002313364
   5   N   :    0.009900364   -0.028430996   -0.000617327
   6   H   :   -0.004181595   -0.002178708    0.000627787
   7   H   :   -0.003214283    0.001789208    0.002312962
   8   H   :    0.003634183    0.000741598    0.000760307
   9   H   :   -0.000912248    0.003748152   -0.000243811
  10   H   :   -0.004235426    0.010013577    0.000302851

Difference to translation invariance:
           :   -0.0024204572    0.0002493198    0.0007353795

Norm of the cartesian gradient     ...    0.0677736938
RMS gradient                       ...    0.0123737270
MAX gradient                       ...    0.0388238709

-------
TIMINGS
-------

Total SCF gradient time            ...        1.765 sec

One electron gradient       ....       0.022 sec  (  1.2%)
Prescreening matrices       ....       0.057 sec  (  3.2%)
RI-J Coulomb gradient       ....       0.260 sec  ( 14.8%)
COSX gradient               ....       0.609 sec  ( 34.5%)
XC gradient                 ....       0.427 sec  ( 24.2%)
------------------------------------------------------------------------------
                         ORCA GEOMETRY RELAXATION STEP
------------------------------------------------------------------------------

Reading the OPT-File                    .... done
Getting information on internals        .... done
Copying old internal coords+grads       .... done
Making the new internal coordinates     .... (new redundants).... done
Validating the new internal coordinates .... (new redundants).... done
Calculating the B-matrix                .... done
Calculating the G,G- and P matrices     .... done
Transforming gradient to internals      .... done
Projecting the internal gradient        .... done
Number of atoms                         ....  10
Number of internal coordinates          ....  30
Current Energy                          ....  -243.327658625 Eh
Current gradient norm                   ....     0.067773694 Eh/bohr
Maximum allowed component of the step   ....  0.300
Current trust radius                    ....  0.300
Evaluating the initial hessian          ....  (Almloef) done
Projecting the Hessian                  .... done
Forming the augmented Hessian           .... done
Diagonalizing the augmented Hessian     .... done
Last element of RFO vector              ....  0.986549667
Lowest eigenvalues of augmented Hessian:
 -0.006933510  0.027791181  0.031770110  0.040044854  0.040768937
Length of the computed step             ....  0.165690374
The final length of the internal step   ....  0.165690374
Converting the step to cartesian space:
 Initial RMS(Int)=    0.0302507851
Transforming coordinates:
 Iter   0:  RMS(Cart)=    0.0692116339 RMS(Int)=    0.0302638977
 Iter   1:  RMS(Cart)=    0.0020694028 RMS(Int)=    0.0014203579
 Iter   2:  RMS(Cart)=    0.0001355960 RMS(Int)=    0.0000597052
 Iter   3:  RMS(Cart)=    0.0000072041 RMS(Int)=    0.0000060496
 Iter   4:  RMS(Cart)=    0.0000004965 RMS(Int)=    0.0000002551
 Iter   5:  RMS(Cart)=    0.0000000264 RMS(Int)=    0.0000000235
done
Storing new coordinates                 .... done

                                .--------------------.
          ----------------------|Geometry convergence|-------------------------
          Item                value                   Tolerance       Converged
          ---------------------------------------------------------------------
          RMS gradient        0.0102251431            0.0020000000      NO
          MAX gradient        0.0386394599            0.0030000000      NO
          RMS step            0.0302507851            0.0200000000      NO
          MAX step            0.0815000961            0.0300000000      NO
          ........................................................
          Max(Bonds)      0.0328      Max(Angles)    4.05
          Max(Dihed)        4.67      Max(Improp)    0.00
          ---------------------------------------------------------------------

The optimization has not yet converged - more geometry cycles are needed


    ---------------------------------------------------------------------------
                         Redundant Internal Coordinates
                            (Angstroem and degrees)

        Definition                    Value    dE/dq     Step     New-Value
    ----------------------------------------------------------------------------
     1. B(N   1,C   0)                1.3599 -0.005778  0.0048    1.3647   
     2. B(N   2,C   0)                1.2823  0.001145 -0.0007    1.2816   
     3. B(C   3,N   2)                1.3640 -0.038639  0.0328    1.3968   
     4. B(N   4,C   3)                1.2868  0.002783 -0.0018    1.2851   
     5. B(H   5,C   0)                1.1021 -0.003755  0.0057    1.1078   
     6. B(H   6,N   1)                1.0132 -0.001767  0.0022    1.0153   
     7. B(H   7,N   1)                1.0152 -0.003607  0.0044    1.0196   
     8. B(H   8,C   3)                1.1036  0.003314 -0.0050    1.0986   
     9. B(H   9,N   4)                1.0142 -0.010515  0.0129    1.0271   
    10. A(N   1,C   0,H   5)          111.91 -0.003749    0.57    112.49   
    11. A(N   2,C   0,H   5)          125.91  0.001554   -0.27    125.64   
    12. A(N   1,C   0,N   2)          122.17  0.002196   -0.30    121.87   
    13. A(C   0,N   1,H   6)          117.27  0.000695    0.26    117.53   
    14. A(H   6,N   1,H   7)          113.87 -0.000829    0.75    114.62   
    15. A(C   0,N   1,H   7)          113.53 -0.002608    0.78    114.32   
    16. A(C   0,N   2,C   3)          122.70 -0.001360    0.17    122.87   
    17. A(N   2,C   3,N   4)          126.51 -0.030031    4.05    130.56   
    18. A(N   4,C   3,H   8)          117.99  0.013091   -1.67    116.31   
    19. A(N   2,C   3,H   8)          115.50  0.016942   -2.38    113.12   
    20. A(C   3,N   4,H   9)          112.41  0.003936   -0.59    111.82   
    21. D(H   7,N   1,C   0,N   2)    -12.66  0.000787   -2.21    -14.87   
    22. D(H   6,N   1,C   0,H   5)     31.21  0.001223   -0.77     30.43   
    23. D(H   6,N   1,C   0,N   2)   -148.81  0.004442   -4.67   -153.48   
    24. D(H   7,N   1,C   0,H   5)    167.35 -0.002432    1.69    169.04   
    25. D(C   3,N   2,C   0,H   5)      0.01 -0.000116   -0.38     -0.37   
    26. D(C   3,N   2,C   0,N   1)   -179.97 -0.003803    4.08   -175.89   
    27. D(N   4,C   3,N   2,C   0)     -0.00  0.000170   -0.19     -0.19   
    28. D(H   8,C   3,N   2,C   0)   -179.75 -0.000275    0.36   -179.39   
    29. D(H   9,N   4,C   3,H   8)   -179.59  0.000072   -0.13   -179.72   
    30. D(H   9,N   4,C   3,N   2)      0.66 -0.000387    0.44      1.09   
    ----------------------------------------------------------------------------

         *************************************************************
         *                GEOMETRY OPTIMIZATION CYCLE   2            *
         *************************************************************
---------------------------------
CARTESIAN COORDINATES (ANGSTROEM)
---------------------------------
  C      1.645953   -0.733460    0.045912
  N      1.015647   -1.942806   -0.006335
  N      0.994304    0.369914    0.024432
  C      1.619014    1.618831   -0.007098
  N      2.865928    1.929440   -0.017474
  H      2.749396   -0.830931    0.036607
  H      1.489654   -2.737254    0.412016
  H      0.013447   -1.901920    0.176599
  H      0.908459    2.456633   -0.011535
  H      3.466798    1.096453   -0.017022

----------------------------
CARTESIAN COORDINATES (A.U.)
----------------------------
  NO LB      ZA    FRAG     MASS         X           Y           Z
   0 C     6.0000    0    12.011    3.110400   -1.386038    0.086761
   1 N     7.0000    0    14.007    1.919295   -3.671371   -0.011972
   2 N     7.0000    0    14.007    1.878963    0.699036    0.046169
   3 C     6.0000    0    12.011    3.059494    3.059147   -0.013413
   4 N     7.0000    0    14.007    5.415819    3.646114   -0.033022
   5 H     1.0000    0     1.008    5.195606   -1.570232    0.069176
   6 H     1.0000    0     1.008    2.815038   -5.172661    0.778597
   7 H     1.0000    0     1.008    0.025411   -3.594108    0.333724
   8 H     1.0000    0     1.008    1.716738    4.642364   -0.021798
   9 H     1.0000    0     1.008    6.551298    2.071995   -0.032168

--------------------------------
INTERNAL COORDINATES (ANGSTROEM)
--------------------------------
 C      0   0   0     0.000000000000     0.00000000     0.00000000
 N      1   0   0     1.364746208903     0.00000000     0.00000000
 N      1   2   0     1.281616195615   121.83131206     0.00000000
 C      3   1   2     1.396800172893   122.87096392   184.09945843
 N      4   3   1     1.285060350331   130.56176678   359.80946789
 H      1   2   3     1.107779235755   112.44213538   183.92243604
 H      2   1   3     1.015307444321   117.51493667   206.51077483
 H      2   1   3     1.019579123794   114.30366516   345.13014854
 H      4   3   1     1.098554203974   113.12306315   180.60837136
 H      5   4   3     1.027089595782   111.81570367     1.09421246

---------------------------
INTERNAL COORDINATES (A.U.)
---------------------------
 C      0   0   0     0.000000000000     0.00000000     0.00000000
 N      1   0   0     2.578996577133     0.00000000     0.00000000
 N      1   2   0     2.421903618511   121.83131206     0.00000000
 C      3   1   2     2.639569790582   122.87096392   184.09945843
 N      4   3   1     2.428412127687   130.56176678   359.80946789
 H      1   2   3     2.093399372422   112.44213538   183.92243604
 H      2   1   3     1.918653011499   117.51493667   206.51077483
 H      2   1   3     1.926725315834   114.30366516   345.13014854
 H      4   3   1     2.075966588779   113.12306315   180.60837136
 H      5   4   3     1.940918051028   111.81570367     1.09421246



           ************************************************************
           *        Program running with 6 parallel MPI-processes     *
           *              working on a common directory               *
           ************************************************************
 One Electron integrals                  ... done
 Pre-screening matrix                    ... done


           ************************************************************
           *        Program running with 6 parallel MPI-processes     *
           *              working on a common directory               *
           ************************************************************

Diagonalization of the overlap matrix:
Smallest eigenvalue                        ... 4.942e-03
Time for diagonalization                   ...    0.002 sec
Threshold for overlap eigenvalues          ... 1.000e-08
Number of eigenvalues below threshold      ... 0
Time for construction of square roots      ...    0.001 sec
Total time needed                          ...    0.003 sec

-------------------
DFT GRID GENERATION
-------------------

General Integration Accuracy     IntAcc      ...  4.340
Radial Grid Type                 RadialGrid  ... Gauss-Chebyshev
Angular Grid (max. acc.)         AngularGrid ... Lebedev-110
Angular grid pruning method      GridPruning ... 3 (G Style)
Weight generation scheme         WeightScheme... Becke
Basis function cutoff            BFCut       ...    1.0000e-11
Integration weight cutoff        WCut        ...    1.0000e-14
Grids for H and He will be reduced by one unit

# of grid points (after initial pruning)     ...  12388 (   0.0 sec)
# of grid points (after weights+screening)   ...  11828 (   0.0 sec)
nearest neighbour list constructed           ...    0.0 sec
Grid point re-assignment to atoms done       ...    0.0 sec
Grid point division into batches done        ...    0.0 sec
Reduced shell lists constructed in    0.0 sec

Total number of grid points                  ...    11828
Total number of batches                      ...      190
Average number of points per batch           ...       62
Average number of grid points per atom       ...     1183
Average number of shells per batch           ...    40.42 (89.83%)
Average number of basis functions per batch  ...    84.36 (88.80%)
Average number of large shells per batch     ...    34.27 (84.78%)
Average number of large basis fcns per batch ...    71.06 (84.23%)
Maximum spatial batch extension              ...   8.35,  7.51, 19.81 au
Average spatial batch extension              ...   0.33,  0.33,  0.47 au

Time for grid setup =    0.045 sec

--------------------
COSX GRID GENERATION
--------------------

General Integration Accuracy     IntAcc      ...  3.340
Radial Grid Type                 RadialGrid  ... Gauss-Chebyshev
Angular Grid (max. acc.)         AngularGrid ... Lebedev-50
Angular grid pruning method      GridPruning ... 3 (G Style)
Weight generation scheme         WeightScheme... Becke
Basis function cutoff            BFCut       ...    1.0000e-11
Integration weight cutoff        WCut        ...    1.0000e-14
Grids for H and He will be reduced by one unit

# of grid points (after initial pruning)     ...   4458 (   0.0 sec)
# of grid points (after weights+screening)   ...   4278 (   0.0 sec)
nearest neighbour list constructed           ...    0.0 sec
Grid point re-assignment to atoms done       ...    0.0 sec
Grid point division into batches done        ...    0.0 sec
Reduced shell lists constructed in    0.0 sec

Total number of grid points                  ...     4278
Total number of batches                      ...       72
Average number of points per batch           ...       59
Average number of grid points per atom       ...      428
Average number of shells per batch           ...    39.54 (87.86%)
Average number of basis functions per batch  ...    82.46 (86.80%)
Average number of large shells per batch     ...    34.62 (87.55%)
Average number of large basis fcns per batch ...    72.15 (87.50%)
Maximum spatial batch extension              ...   3.79,  4.23, 16.85 au
Average spatial batch extension              ...   0.31,  0.36,  0.68 au

Overlap Fitting                  UseSFitting ... on
Constructing numerical overlap ... done (      0.0 sec)
Inverting numerical overlap    ... done (      0.0 sec)
Obtaining analytic overlap     ... done (      0.0 sec)
Final contraction and storage  ... done (      0.0 sec)


General Integration Accuracy     IntAcc      ...  3.670
Radial Grid Type                 RadialGrid  ... Gauss-Chebyshev
Angular Grid (max. acc.)         AngularGrid ... Lebedev-50
Angular grid pruning method      GridPruning ... 3 (G Style)
Weight generation scheme         WeightScheme... Becke
Basis function cutoff            BFCut       ...    1.0000e-11
Integration weight cutoff        WCut        ...    1.0000e-14
Grids for H and He will be reduced by one unit

# of grid points (after initial pruning)     ...   5710 (   0.0 sec)
# of grid points (after weights+screening)   ...   5467 (   0.0 sec)
nearest neighbour list constructed           ...    0.0 sec
Grid point re-assignment to atoms done       ...    0.0 sec
Grid point division into batches done        ...    0.0 sec
Reduced shell lists constructed in    0.0 sec

Total number of grid points                  ...     5467
Total number of batches                      ...       89
Average number of points per batch           ...       61
Average number of grid points per atom       ...      547
Average number of shells per batch           ...    39.75 (88.33%)
Average number of basis functions per batch  ...    82.75 (87.11%)
Average number of large shells per batch     ...    34.31 (86.32%)
Average number of large basis fcns per batch ...    71.31 (86.18%)
Maximum spatial batch extension              ...   5.45,  8.27, 18.27 au
Average spatial batch extension              ...   0.36,  0.38,  0.68 au

Overlap Fitting                  UseSFitting ... on
Constructing numerical overlap ... done (      0.0 sec)
Inverting numerical overlap    ... done (      0.0 sec)
Obtaining analytic overlap     ... done (      0.0 sec)
Final contraction and storage  ... done (      0.0 sec)


General Integration Accuracy     IntAcc      ...  4.010
Radial Grid Type                 RadialGrid  ... Gauss-Chebyshev
Angular Grid (max. acc.)         AngularGrid ... Lebedev-110
Angular grid pruning method      GridPruning ... 3 (G Style)
Weight generation scheme         WeightScheme... Becke
Basis function cutoff            BFCut       ...    1.0000e-11
Integration weight cutoff        WCut        ...    1.0000e-14
Grids for H and He will be reduced by one unit

# of grid points (after initial pruning)     ...  10680 (   0.0 sec)
# of grid points (after weights+screening)   ...  10214 (   0.0 sec)
nearest neighbour list constructed           ...    0.0 sec
Grid point re-assignment to atoms done       ...    0.0 sec
Grid point division into batches done        ...    0.0 sec
Reduced shell lists constructed in    0.0 sec

Total number of grid points                  ...    10214
Total number of batches                      ...      164
Average number of points per batch           ...       62
Average number of grid points per atom       ...     1021
Average number of shells per batch           ...    40.79 (90.65%)
Average number of basis functions per batch  ...    85.21 (89.69%)
Average number of large shells per batch     ...    34.86 (85.46%)
Average number of large basis fcns per batch ...    72.66 (85.27%)
Maximum spatial batch extension              ...   8.66, 10.25, 18.60 au
Average spatial batch extension              ...   0.33,  0.36,  0.50 au

Overlap Fitting                  UseSFitting ... on
Constructing numerical overlap ... done (      0.0 sec)
Inverting numerical overlap    ... done (      0.0 sec)
Obtaining analytic overlap     ... done (      0.0 sec)
Final contraction and storage  ... done (      0.0 sec)

Time for X-Grid setup             =    0.180 sec
--------------
SCF ITERATIONS
--------------
ITER       Energy         Delta-E        Max-DP      RMS-DP      [F,P]     Damp
               ***  Starting incremental Fock matrix formation  ***
  0   -243.3168227617   0.000000000000 0.00562722  0.00030651  0.0256307 0.7000
                      *** Initiating the SOSCF procedure ***
                      *** Re-Reading the Fockian *** 
                      *** Removing any level shift *** 
ITER      Energy       Delta-E        Grad      Rot      Max-DP    RMS-DP
  1   -243.31789017  -0.0010674071  0.001888  0.001888  0.016671  0.000965
               *** Restarting incremental Fock matrix formation ***
  2   -243.32070412  -0.0028139476  0.001274  0.006133  0.004048  0.000263
  3   -243.32076740  -0.0000632797  0.001156  0.004428  0.002866  0.000147
  4   -243.32077550  -0.0000081054  0.000906  0.002049  0.001503  0.000086
  5   -243.32079204  -0.0000165372  0.000209  0.000396  0.000999  0.000028
  6   -243.32079203   0.0000000040  0.000223  0.000287  0.000492  0.000017
  7   -243.32079320  -0.0000011641  0.000038  0.000083  0.000131  0.000006
  8   -243.32079321  -0.0000000131  0.000043  0.000067  0.000092  0.000003
  9   -243.32079324  -0.0000000282  0.000028  0.000049  0.000046  0.000003
 10   -243.32079324  -0.0000000005  0.000015  0.000018  0.000024  0.000001
                  ***Gradient check signals convergence***
              ***Rediagonalizing the Fockian in SOSCF/NRSCF***

               *****************************************************
               *                     SUCCESS                       *
               *           SCF CONVERGED AFTER  11 CYCLES          *
               *****************************************************

Setting up the final grid:

General Integration Accuracy     IntAcc      ...  4.670
Radial Grid Type                 RadialGrid  ... Gauss-Chebyshev
Angular Grid (max. acc.)         AngularGrid ... Lebedev-302
Angular grid pruning method      GridPruning ... 3 (G Style)
Weight generation scheme         WeightScheme... Becke
Basis function cutoff            BFCut       ...    1.0000e-11
Integration weight cutoff        WCut        ...    1.0000e-14
Grids for H and He will be reduced by one unit

# of grid points (after initial pruning)     ...  48030 (   0.0 sec)
# of grid points (after weights+screening)   ...  45430 (   0.0 sec)
nearest neighbour list constructed           ...    0.0 sec
Grid point re-assignment to atoms done       ...    0.0 sec
Grid point division into batches done        ...    0.2 sec
Reduced shell lists constructed in    0.2 sec

Total number of grid points                  ...    45430
Total number of batches                      ...      716
Average number of points per batch           ...       63
Average number of grid points per atom       ...     4543
Average number of shells per batch           ...    38.98 (86.63%)
Average number of basis functions per batch  ...    81.25 (85.52%)
Average number of large shells per batch     ...    32.61 (83.65%)
Average number of large basis fcns per batch ...    67.65 (83.27%)
Maximum spatial batch extension              ...   9.57, 11.87, 17.80 au
Average spatial batch extension              ...   0.23,  0.23,  0.29 au

Final grid set up in    0.3 sec
Final integration                            ... done (   0.1 sec)
Change in XC energy                          ...     0.000075594
Integrated number of electrons               ...    37.999969650
Previous integrated no of electrons          ...    38.002069071
Old exchange energy                            =     -6.386100245 Eh
New exchange energy                            =     -6.385748857 Eh
Exchange energy change after final integration =      0.000351388 Eh
Total energy after final integration           =   -243.320366270 Eh
Final COS-X integration done in                =     0.517 sec
Total Energy       :         -243.32036627 Eh           -6621.08378 eV
  Last Energy change         ...   -1.1921e-08  Tolerance :   1.0000e-08
  Last MAX-Density change    ...    4.1803e-14  Tolerance :   1.0000e-07
             **** THE GBW FILE WAS UPDATED (g8raf/frag_20_c00001.gbw) ****
             **** DENSITY FILE WAS UPDATED (g8raf/frag_20_c00001.scfp.tmp) ****
             **** ENERGY FILE WAS UPDATED (g8raf/frag_20_c00001.en.tmp) ****
Total SCF time: 0 days 0 hours 0 min 6 sec 


-------------------------------------------------------------------------------
                          DFT DISPERSION CORRECTION                            
                                                                               
                              DFTD3 V3.1  Rev 1                                
                          USING Becke-Johnson damping                          
-------------------------------------------------------------------------------
-------------------------   ----------------
Dispersion correction           -0.011400457
-------------------------   ----------------


-------------------------   --------------------
FINAL SINGLE POINT ENERGY      -243.331766727681
-------------------------   --------------------



           ************************************************************
           *        Program running with 6 parallel MPI-processes     *
           *              working on a common directory               *
           ************************************************************
------------------------------------------------------------------------------
                         ORCA SCF GRADIENT CALCULATION
------------------------------------------------------------------------------

Gradient of the Kohn-Sham DFT energy:
Kohn-Sham wavefunction type      ... RKS
Hartree-Fock exchange scaling    ...    0.200
Number of operators              ...    1
Number of atoms                  ...   10
Basis set dimensions             ...   95
Integral neglect threshold       ... 2.5e-11
Integral primitive cutoff        ... 2.5e-12

Nuclear repulsion gradient       ... done
One Electron Gradient            ... done
Pre-screening matrix             ... done
RI-J gradient                    ... done
COSX-gradient                    ... done
Exchange-correlation gradient    ... done
Dispersion correction            ... done

------------------
CARTESIAN GRADIENT
------------------

   1   C   :   -0.005224088   -0.000429648    0.002824791
   2   N   :    0.003340649   -0.001009475   -0.003624848
   3   N   :    0.014585476    0.004803697   -0.000252151
   4   C   :   -0.019748443   -0.000972149   -0.000547591
   5   N   :    0.006396872   -0.005478723    0.000623815
   6   H   :   -0.001118137   -0.001685707   -0.001407670
   7   H   :   -0.001209555   -0.000226328    0.002066207
   8   H   :   -0.000805125    0.000372384    0.001268673
   9   H   :    0.002123403    0.001180122   -0.000002970
  10   H   :   -0.000644458    0.003399757   -0.000041818

Difference to translation invariance:
           :   -0.0023034054   -0.0000460700    0.0009064373

Norm of the cartesian gradient     ...    0.0281309527
RMS gradient                       ...    0.0051359858
MAX gradient                       ...    0.0197484428

-------
TIMINGS
-------

Total SCF gradient time            ...        1.635 sec

One electron gradient       ....       0.020 sec  (  1.2%)
Prescreening matrices       ....       0.057 sec  (  3.5%)
RI-J Coulomb gradient       ....       0.239 sec  ( 14.6%)
COSX gradient               ....       0.574 sec  ( 35.1%)
XC gradient                 ....       0.328 sec  ( 20.1%)
------------------------------------------------------------------------------
                         ORCA GEOMETRY RELAXATION STEP
------------------------------------------------------------------------------

Reading the OPT-File                    .... done
Getting information on internals        .... done
Copying old internal coords+grads       .... done
Making the new internal coordinates     .... (new redundants).... done
Validating the new internal coordinates .... (new redundants).... done
Calculating the B-matrix                .... done
Calculating the G,G- and P matrices     .... done
Transforming gradient to internals      .... done
Projecting the internal gradient        .... done
Number of atoms                         ....  10
Number of internal coordinates          ....  30
Current Energy                          ....  -243.331766728 Eh
Current gradient norm                   ....     0.028130953 Eh/bohr
Maximum allowed component of the step   ....  0.300
Current trust radius                    ....  0.300
Updating the Hessian (BFGS)             .... done
Forming the augmented Hessian           .... done
Diagonalizing the augmented Hessian     .... done
Last element of RFO vector              ....  0.995879660
Lowest eigenvalues of augmented Hessian:
 -0.001178467  0.027781374  0.031404911  0.040019993  0.042734388
Length of the computed step             ....  0.091059829
The final length of the internal step   ....  0.091059829
Converting the step to cartesian space:
 Initial RMS(Int)=    0.0166251742
Transforming coordinates:
 Iter   0:  RMS(Cart)=    0.0258719723 RMS(Int)=    0.0166442981
 Iter   1:  RMS(Cart)=    0.0004817414 RMS(Int)=    0.0003466977
 Iter   2:  RMS(Cart)=    0.0000069643 RMS(Int)=    0.0000080104
 Iter   3:  RMS(Cart)=    0.0000002405 RMS(Int)=    0.0000002158
 Iter   4:  RMS(Cart)=    0.0000000044 RMS(Int)=    0.0000000052
done
Storing new coordinates                 .... done

                                .--------------------.
          ----------------------|Geometry convergence|-------------------------
          Item                value                   Tolerance       Converged
          ---------------------------------------------------------------------
          Energy change      -0.0041081026            0.0001000000      NO
          RMS gradient        0.0033194991            0.0020000000      NO
          MAX gradient        0.0126079229            0.0030000000      NO
          RMS step            0.0166251742            0.0200000000      YES
          MAX step            0.0461889956            0.0300000000      NO
          ........................................................
          Max(Bonds)      0.0111      Max(Angles)    1.92
          Max(Dihed)        2.65      Max(Improp)    0.00
          ---------------------------------------------------------------------

The optimization has not yet converged - more geometry cycles are needed


    ---------------------------------------------------------------------------
                         Redundant Internal Coordinates
                            (Angstroem and degrees)

        Definition                    Value    dE/dq     Step     New-Value
    ----------------------------------------------------------------------------
     1. B(N   1,C   0)                1.3647 -0.000113  0.0007    1.3655   
     2. B(N   2,C   0)                1.2816  0.000532 -0.0005    1.2811   
     3. B(C   3,N   2)                1.3968 -0.006522  0.0111    1.4079   
     4. B(N   4,C   3)                1.2851  0.005557 -0.0046    1.2805   
     5. B(H   5,C   0)                1.1078 -0.000732  0.0021    1.1099   
     6. B(H   6,N   1)                1.0153  0.000464 -0.0004    1.0149   
     7. B(H   7,N   1)                1.0196  0.000796 -0.0006    1.0189   
     8. B(H   8,C   3)                1.0986 -0.000630  0.0005    1.0991   
     9. B(H   9,N   4)                1.0271 -0.002979  0.0062    1.0332   
    10. A(N   1,C   0,H   5)          112.44 -0.002293    0.49    112.94   
    11. A(N   2,C   0,H   5)          125.60  0.001449   -0.35    125.25   
    12. A(N   1,C   0,N   2)          121.83  0.000792   -0.19    121.64   
    13. A(C   0,N   1,H   6)          117.51  0.000441    0.22    117.74   
    14. A(H   6,N   1,H   7)          114.60 -0.000558    0.68    115.28   
    15. A(C   0,N   1,H   7)          114.30 -0.001355    0.64    114.95   
    16. A(C   0,N   2,C   3)          122.87  0.012608   -1.92    120.95   
    17. A(N   2,C   3,N   4)          130.56 -0.005420    1.43    131.99   
    18. A(N   4,C   3,H   8)          116.31  0.000012   -0.13    116.18   
    19. A(N   2,C   3,H   8)          113.12  0.005401   -1.30    111.83   
    20. A(C   3,N   4,H   9)          111.82  0.003218   -0.67    111.14   
    21. D(H   7,N   1,C   0,N   2)    -14.87 -0.000979    0.45    -14.42   
    22. D(H   6,N   1,C   0,H   5)     30.43  0.001899   -2.65     27.79   
    23. D(H   6,N   1,C   0,N   2)   -153.49  0.001170   -1.71   -155.20   
    24. D(H   7,N   1,C   0,H   5)    169.05 -0.000250   -0.49    168.56   
    25. D(C   3,N   2,C   0,H   5)     -0.36 -0.001130    1.54      1.18   
    26. D(C   3,N   2,C   0,N   1)   -175.90 -0.000146    0.46   -175.44   
    27. D(N   4,C   3,N   2,C   0)     -0.19 -0.000715    1.46      1.27   
    28. D(H   8,C   3,N   2,C   0)   -179.39 -0.000074    0.45   -178.94   
    29. D(H   9,N   4,C   3,H   8)   -179.73 -0.000272    0.48   -179.25   
    30. D(H   9,N   4,C   3,N   2)      1.09  0.000353   -0.55      0.54   
    ----------------------------------------------------------------------------

         *************************************************************
         *                GEOMETRY OPTIMIZATION CYCLE   3            *
         *************************************************************
---------------------------------
CARTESIAN COORDINATES (ANGSTROEM)
---------------------------------
  C      1.635949   -0.724921    0.057575
  N      1.016357   -1.940244   -0.003009
  N      0.972333    0.370562    0.029741
  C      1.630067    1.614944   -0.002749
  N      2.871498    1.927238   -0.032586
  H      2.742842   -0.803615    0.077680
  H      1.501774   -2.737678    0.395075
  H      0.010786   -1.918025    0.160045
  H      0.919045    2.453061   -0.004985
  H      3.467950    1.083576   -0.040687

----------------------------
CARTESIAN COORDINATES (A.U.)
----------------------------
  NO LB      ZA    FRAG     MASS         X           Y           Z
   0 C     6.0000    0    12.011    3.091495   -1.369901    0.108801
   1 N     7.0000    0    14.007    1.920637   -3.666529   -0.005686
   2 N     7.0000    0    14.007    1.837442    0.700260    0.056202
   3 C     6.0000    0    12.011    3.080379    3.051803   -0.005195
   4 N     7.0000    0    14.007    5.426345    3.641953   -0.061579
   5 H     1.0000    0     1.008    5.183220   -1.518612    0.146794
   6 H     1.0000    0     1.008    2.837942   -5.173461    0.746584
   7 H     1.0000    0     1.008    0.020382   -3.624543    0.302441
   8 H     1.0000    0     1.008    1.736743    4.635613   -0.009421
   9 H     1.0000    0     1.008    6.553475    2.047663   -0.076887

--------------------------------
INTERNAL COORDINATES (ANGSTROEM)
--------------------------------
 C      0   0   0     0.000000000000     0.00000000     0.00000000
 N      1   0   0     1.365494093431     0.00000000     0.00000000
 N      1   2   0     1.281110034611   121.67209332     0.00000000
 C      3   1   2     1.407891276881   120.95054371   184.55397379
 N      4   3   1     1.280457038865   131.99329120     1.26507378
 H      1   2   3     1.109869347508   112.96878240   182.98549395
 H      2   1   3     1.014890061966   117.70334347   204.79048845
 H      2   1   3     1.018947845060   114.91577795   345.58853954
 H      4   3   1     1.099088617681   111.82765185   181.06293101
 H      5   4   3     1.033240259265   111.14372619     0.54261712

---------------------------
INTERNAL COORDINATES (A.U.)
---------------------------
 C      0   0   0     0.000000000000     0.00000000     0.00000000
 N      1   0   0     2.580409874072     0.00000000     0.00000000
 N      1   2   0     2.420947112833   121.67209332     0.00000000
 C      3   1   2     2.660528939643   120.95054371   184.55397379
 N      4   3   1     2.419713129707   131.99329120     1.26507378
 H      1   2   3     2.097349111224   112.96878240   182.98549395
 H      2   1   3     1.917864273155   117.70334347   204.79048845
 H      2   1   3     1.925532371913   114.91577795   345.58853954
 H      4   3   1     2.076976484327   111.82765185   181.06293101
 H      5   4   3     1.952541120552   111.14372619     0.54261712



           ************************************************************
           *        Program running with 6 parallel MPI-processes     *
           *              working on a common directory               *
           ************************************************************
 One Electron integrals                  ... done
 Pre-screening matrix                    ... done


           ************************************************************
           *        Program running with 6 parallel MPI-processes     *
           *              working on a common directory               *
[...]
Maximum spatial batch extension              ...   5.81,  4.33,  8.62 au
Average spatial batch extension              ...   0.31,  0.32,  0.38 au

Time for grid setup =    0.043 sec

--------------------
COSX GRID GENERATION
--------------------

General Integration Accuracy     IntAcc      ...  3.340
Radial Grid Type                 RadialGrid  ... Gauss-Chebyshev
Angular Grid (max. acc.)         AngularGrid ... Lebedev-50
Angular grid pruning method      GridPruning ... 3 (G Style)
Weight generation scheme         WeightScheme... Becke
Basis function cutoff            BFCut       ...    1.0000e-11
Integration weight cutoff        WCut        ...    1.0000e-14
Grids for H and He will be reduced by one unit

# of grid points (after initial pruning)     ...   4458 (   0.0 sec)
# of grid points (after weights+screening)   ...   4289 (   0.0 sec)
nearest neighbour list constructed           ...    0.0 sec
Grid point re-assignment to atoms done       ...    0.0 sec
Grid point division into batches done        ...    0.0 sec
Reduced shell lists constructed in    0.0 sec

Total number of grid points                  ...     4289
Total number of batches                      ...       72
Average number of points per batch           ...       59
Average number of grid points per atom       ...      429
Average number of shells per batch           ...    39.54 (87.86%)
Average number of basis functions per batch  ...    82.46 (86.80%)
Average number of large shells per batch     ...    34.54 (87.35%)
Average number of large basis fcns per batch ...    72.08 (87.41%)
Maximum spatial batch extension              ...   8.52,  4.06, 13.17 au
Average spatial batch extension              ...   0.56,  0.42,  0.69 au

Overlap Fitting                  UseSFitting ... on
Constructing numerical overlap ... done (      0.0 sec)
Inverting numerical overlap    ... done (      0.0 sec)
Obtaining analytic overlap     ... done (      0.0 sec)
Final contraction and storage  ... done (      0.0 sec)


General Integration Accuracy     IntAcc      ...  3.670
Radial Grid Type                 RadialGrid  ... Gauss-Chebyshev
Angular Grid (max. acc.)         AngularGrid ... Lebedev-50
Angular grid pruning method      GridPruning ... 3 (G Style)
Weight generation scheme         WeightScheme... Becke
Basis function cutoff            BFCut       ...    1.0000e-11
Integration weight cutoff        WCut        ...    1.0000e-14
Grids for H and He will be reduced by one unit

# of grid points (after initial pruning)     ...   5710 (   0.0 sec)
# of grid points (after weights+screening)   ...   5490 (   0.0 sec)
nearest neighbour list constructed           ...    0.0 sec
Grid point re-assignment to atoms done       ...    0.0 sec
Grid point division into batches done        ...    0.0 sec
Reduced shell lists constructed in    0.0 sec

Total number of grid points                  ...     5490
Total number of batches                      ...       92
Average number of points per batch           ...       59
Average number of grid points per atom       ...      549
Average number of shells per batch           ...    39.82 (88.50%)
Average number of basis functions per batch  ...    82.88 (87.24%)
Average number of large shells per batch     ...    34.18 (85.82%)
Average number of large basis fcns per batch ...    71.35 (86.09%)
Maximum spatial batch extension              ...   7.10,  4.49, 10.16 au
Average spatial batch extension              ...   0.43,  0.36,  0.54 au

Overlap Fitting                  UseSFitting ... on
Constructing numerical overlap ... done (      0.0 sec)
Inverting numerical overlap    ... done (      0.0 sec)
Obtaining analytic overlap     ... done (      0.0 sec)
Final contraction and storage  ... done (      0.0 sec)


General Integration Accuracy     IntAcc      ...  4.010
Radial Grid Type                 RadialGrid  ... Gauss-Chebyshev
Angular Grid (max. acc.)         AngularGrid ... Lebedev-110
Angular grid pruning method      GridPruning ... 3 (G Style)
Weight generation scheme         WeightScheme... Becke
Basis function cutoff            BFCut       ...    1.0000e-11
Integration weight cutoff        WCut        ...    1.0000e-14
Grids for H and He will be reduced by one unit

# of grid points (after initial pruning)     ...  10680 (   0.0 sec)
# of grid points (after weights+screening)   ...  10218 (   0.0 sec)
nearest neighbour list constructed           ...    0.0 sec
Grid point re-assignment to atoms done       ...    0.0 sec
Grid point division into batches done        ...    0.0 sec
Reduced shell lists constructed in    0.0 sec

Total number of grid points                  ...    10218
Total number of batches                      ...      165
Average number of points per batch           ...       61
Average number of grid points per atom       ...     1022
Average number of shells per batch           ...    40.45 (89.89%)
Average number of basis functions per batch  ...    84.38 (88.82%)
Average number of large shells per batch     ...    34.76 (85.93%)
Average number of large basis fcns per batch ...    72.34 (85.74%)
Maximum spatial batch extension              ...   5.46,  4.25, 10.05 au
Average spatial batch extension              ...   0.34,  0.33,  0.39 au

Overlap Fitting                  UseSFitting ... on
Constructing numerical overlap ... done (      0.0 sec)
Inverting numerical overlap    ... done (      0.0 sec)
Obtaining analytic overlap     ... done (      0.0 sec)
Final contraction and storage  ... done (      0.0 sec)

Time for X-Grid setup             =    0.168 sec
--------------
SCF ITERATIONS
--------------
ITER       Energy         Delta-E        Max-DP      RMS-DP      [F,P]     Damp
               ***  Starting incremental Fock matrix formation  ***
                      *** Initiating the SOSCF procedure ***
                      *** Re-Reading the Fockian *** 
                      *** Removing any level shift *** 
ITER      Energy       Delta-E        Grad      Rot      Max-DP    RMS-DP
  0   -243.32534910 -243.3253491006  0.000625  0.000625  0.002275  0.000103
               *** Restarting incremental Fock matrix formation ***
  1   -243.32538900  -0.0000398999  0.000375  0.001361  0.000800  0.000051
  2   -243.32539435  -0.0000053532  0.000165  0.000710  0.000748  0.000030
  3   -243.32539333   0.0000010276  0.000304  0.000447  0.000509  0.000019
  4   -243.32539480  -0.0000014776  0.000023  0.000107  0.000143  0.000005
  5   -243.32539478   0.0000000259  0.000053  0.000079  0.000091  0.000003
  6   -243.32539482  -0.0000000400  0.000003  0.000005  0.000013  0.000001
  7   -243.32539482  -0.0000000059  0.000003  0.000002  0.000007  0.000000
                  ***Gradient check signals convergence***
              ***Rediagonalizing the Fockian in SOSCF/NRSCF***

               *****************************************************
               *                     SUCCESS                       *
               *           SCF CONVERGED AFTER   8 CYCLES          *
               *****************************************************

Setting up the final grid:

General Integration Accuracy     IntAcc      ...  4.670
Radial Grid Type                 RadialGrid  ... Gauss-Chebyshev
Angular Grid (max. acc.)         AngularGrid ... Lebedev-302
Angular grid pruning method      GridPruning ... 3 (G Style)
Weight generation scheme         WeightScheme... Becke
Basis function cutoff            BFCut       ...    1.0000e-11
Integration weight cutoff        WCut        ...    1.0000e-14
Grids for H and He will be reduced by one unit

# of grid points (after initial pruning)     ...  48030 (   0.0 sec)
# of grid points (after weights+screening)   ...  45517 (   0.0 sec)
nearest neighbour list constructed           ...    0.0 sec
Grid point re-assignment to atoms done       ...    0.0 sec
Grid point division into batches done        ...    0.2 sec
Reduced shell lists constructed in    0.2 sec

Total number of grid points                  ...    45517
Total number of batches                      ...      717
Average number of points per batch           ...       63
Average number of grid points per atom       ...     4552
Average number of shells per batch           ...    39.54 (87.86%)
Average number of basis functions per batch  ...    82.12 (86.44%)
Average number of large shells per batch     ...    33.06 (83.61%)
Average number of large basis fcns per batch ...    68.56 (83.49%)
Maximum spatial batch extension              ...  11.61,  6.09, 17.99 au
Average spatial batch extension              ...   0.25,  0.22,  0.27 au

Final grid set up in    0.2 sec
Final integration                            ... done (   0.1 sec)
Change in XC energy                          ...    -0.000074040
Integrated number of electrons               ...    38.000020360
Previous integrated no of electrons          ...    37.997059724
Old exchange energy                            =     -6.386758827 Eh
New exchange energy                            =     -6.386419257 Eh
Exchange energy change after final integration =      0.000339570 Eh
Total energy after final integration           =   -243.325129289 Eh
Final COS-X integration done in                =     0.433 sec

----------------
TOTAL SCF ENERGY
----------------

Total Energy       :         -243.32512929 Eh           -6621.21338 eV

Components:
Nuclear Repulsion  :          160.96553019 Eh            4380.09476 eV
Electronic Energy  :         -404.29065948 Eh          -11001.30814 eV
One Electron Energy:         -647.60173348 Eh          -17622.13906 eV
Two Electron Energy:          243.31107400 Eh            6620.83092 eV

Virial components:
Potential Energy   :         -485.12708359 Eh          -13200.97907 eV
Kinetic Energy     :          241.80195430 Eh            6579.76569 eV
Virial Ratio       :            2.00629927


DFT components:
N(Alpha)           :       19.000010180210 electrons
N(Beta)            :       19.000010180210 electrons
N(Total)           :       38.000020360419 electrons
E(X)               :      -25.400910872426 Eh       
E(C)               :       -1.514343496639 Eh       
E(XC)              :      -26.915254369064 Eh       

---------------
SCF CONVERGENCE
---------------

  Last Energy change         ...    5.0643e-09  Tolerance :   1.0000e-08
  Last MAX-Density change    ...    3.0386e-13  Tolerance :   1.0000e-07
  Last RMS-Density change    ...    3.2999e-15  Tolerance :   5.0000e-09
  Last Orbital Gradient      ...    4.4929e-07  Tolerance :   1.0000e-05
  Last Orbital Rotation      ...    1.1040e-06  Tolerance :   1.0000e-05

             **** THE GBW FILE WAS UPDATED (g8raf/frag_20_c00001.gbw) ****
             **** DENSITY FILE WAS UPDATED (g8raf/frag_20_c00001.scfp.tmp) ****
             **** ENERGY FILE WAS UPDATED (g8raf/frag_20_c00001.en.tmp) ****
----------------
ORBITAL ENERGIES
----------------

  NO   OCC          E(Eh)            E(eV) 
   0   2.0000     -14.365658      -390.9094 
   1   2.0000     -14.309178      -389.3725 
   2   2.0000     -14.291349      -388.8874 
   3   2.0000     -10.274087      -279.5721 
   4   2.0000     -10.234875      -278.5051 
   5   2.0000      -0.967460       -26.3259 
   6   2.0000      -0.908688       -24.7267 
   7   2.0000      -0.837303       -22.7842 
   8   2.0000      -0.656292       -17.8586 
   9   2.0000      -0.589525       -16.0418 
  10   2.0000      -0.551690       -15.0122 
  11   2.0000      -0.487858       -13.2753 
  12   2.0000      -0.471647       -12.8342 
  13   2.0000      -0.420363       -11.4387 
  14   2.0000      -0.378152       -10.2900 
  15   2.0000      -0.331108        -9.0099 
  16   2.0000      -0.282789        -7.6951 
  17   2.0000      -0.239889        -6.5277 
  18   2.0000      -0.236961        -6.4480 
  19   0.0000      -0.007615        -0.2072 
  20   0.0000       0.043148         1.1741 
  21   0.0000       0.060175         1.6374 
  22   0.0000       0.071672         1.9503 
  23   0.0000       0.109396         2.9768 
  24   0.0000       0.126853         3.4518 
  25   0.0000       0.146537         3.9875 
  26   0.0000       0.245479         6.6798 
  27   0.0000       0.296549         8.0695 
  28   0.0000       0.338555         9.2126 
  29   0.0000       0.364553         9.9200 
  30   0.0000       0.437669        11.9096 
  31   0.0000       0.466285        12.6883 
  32   0.0000       0.495860        13.4930 
  33   0.0000       0.516123        14.0444 
  34   0.0000       0.526092        14.3157 
  35   0.0000       0.548278        14.9194 
  36   0.0000       0.591561        16.0972 
  37   0.0000       0.601008        16.3542 
  38   0.0000       0.659773        17.9533 
  39   0.0000       0.675203        18.3732 
  40   0.0000       0.701078        19.0773 
  41   0.0000       0.733541        19.9607 
  42   0.0000       0.766591        20.8600 
  43   0.0000       0.789248        21.4765 
  44   0.0000       0.802939        21.8491 
  45   0.0000       0.821399        22.3514 
  46   0.0000       0.846591        23.0369 
  47   0.0000       0.856978        23.3196 
  48   0.0000       0.908220        24.7139 
  49   0.0000       0.953448        25.9446 
  50   0.0000       1.010957        27.5095 
  51   0.0000       1.054379        28.6911 
  52   0.0000       1.081176        29.4203 
  53   0.0000       1.114439        30.3254 
  54   0.0000       1.118097        30.4250 
  55   0.0000       1.210572        32.9413 
  56   0.0000       1.246703        33.9245 
  57   0.0000       1.307235        35.5717 
  58   0.0000       1.361294        37.0427 
  59   0.0000       1.432673        38.9850 
  60   0.0000       1.470455        40.0131 
  61   0.0000       1.476805        40.1859 
  62   0.0000       1.502294        40.8795 
  63   0.0000       1.530044        41.6346 
  64   0.0000       1.561307        42.4853 
  65   0.0000       1.606086        43.7038 
  66   0.0000       1.626018        44.2462 
  67   0.0000       1.666440        45.3461 
  68   0.0000       1.690582        46.0031 
  69   0.0000       1.725325        46.9485 
  70   0.0000       1.750326        47.6288 
  71   0.0000       1.830110        49.7998 
  72   0.0000       1.851500        50.3819 
  73   0.0000       1.890114        51.4326 
  74   0.0000       2.005429        54.5705 
  75   0.0000       2.044638        55.6374 
  76   0.0000       2.108686        57.3803 
  77   0.0000       2.120374        57.6983 
  78   0.0000       2.197153        59.7876 
  79   0.0000       2.269848        61.7657 
  80   0.0000       2.286861        62.2286 
  81   0.0000       2.305597        62.7385 
  82   0.0000       2.353542        64.0431 
  83   0.0000       2.374138        64.6036 
  84   0.0000       2.439516        66.3826 
  85   0.0000       2.497497        67.9603 
  86   0.0000       2.574997        70.0692 
  87   0.0000       2.618563        71.2547 
  88   0.0000       2.688576        73.1599 
  89   0.0000       2.734006        74.3961 
  90   0.0000       2.766262        75.2738 
  91   0.0000       2.860190        77.8297 
  92   0.0000       3.030210        82.4562 
  93   0.0000       3.064960        83.4018 
  94   0.0000       3.299447        89.7825 
-------
TIMINGS
-------

Total SCF time: 0 days 0 hours 0 min 4 sec 

Total time                  ....       4.401 sec
Sum of individual times     ....       4.375 sec  ( 99.4%)

Fock matrix formation       ....       3.861 sec  ( 87.7%)
  Split-RI-J                ....       1.193 sec  ( 30.9% of F)
  Chain of spheres X        ....       2.362 sec  ( 61.2% of F)
  COS-X 1 center corr.      ....       0.000 sec  (  0.0% of F)
  XC integration            ....       0.287 sec  (  7.4% of F)
    Basis function eval.    ....       0.098 sec  ( 34.1% of XC)
    Density eval.           ....       0.039 sec  ( 13.5% of XC)
    XC-Functional eval.     ....       0.017 sec  (  5.8% of XC)
    XC-Potential eval.      ....       0.071 sec  ( 24.9% of XC)
Diagonalization             ....       0.002 sec  (  0.0%)
Density matrix formation    ....       0.008 sec  (  0.2%)
Population analysis         ....       0.000 sec  (  0.0%)
Initial guess               ....       0.003 sec  (  0.1%)
Orbital Transformation      ....       0.000 sec  (  0.0%)
Orbital Orthonormalization  ....       0.001 sec  (  0.0%)
DIIS solution               ....       0.000 sec  (  0.0%)
SOSCF solution              ....       0.072 sec  (  1.6%)
Grid generation             ....       0.429 sec  (  9.8%)


-------------------------------------------------------------------------------
                          DFT DISPERSION CORRECTION                            
                                                                               
                              DFTD3 V3.1  Rev 1                                
                          USING Becke-Johnson damping                          
-------------------------------------------------------------------------------
The B3LYP functional is recognized
Active option DFTDOPT                   ...         4   

molecular C6(AA) [au] = 998.729860 


            DFT-D V3
 parameters
 s6 scaling factor         :     1.0000 
 a1 scaling factor         :     0.3981 
 s8 scaling factor         :     1.9889 
 a2 scaling factor         :     4.4211 
 ad hoc parameters k1-k3   :    16.0000     1.3333    -4.0000 

 Edisp/kcal,au: -7.170856939102  -0.011427486708 
 E6   /kcal   :  -3.488652327 
 E8   /kcal   :  -3.682204612 
 % E8         :  51.349575695 

-------------------------   ----------------
Dispersion correction           -0.011427487
-------------------------   ----------------


-------------------------   --------------------
FINAL SINGLE POINT ENERGY      -243.336556776072
-------------------------   --------------------

                                *** OPTIMIZATION RUN DONE ***

                            ***************************************
                            *     ORCA property calculations      *
                            ***************************************

                                    ---------------------
                                    Active property flags
                                    ---------------------
   (+) Dipole Moment


------------------------------------------------------------------------------
                       ORCA ELECTRIC PROPERTIES CALCULATION
------------------------------------------------------------------------------

Dipole Moment Calculation                       ... on
Quadrupole Moment Calculation                   ... off
Polarizability Calculation                      ... off
GBWName                                         ... g8raf/frag_20_c00001.gbw
Electron density file                           ... g8raf/frag_20_c00001.scfp.tmp
The origin for moment calculation is the CENTER OF MASS  = ( 3.115904,  0.372157 -0.014717)

-------------
DIPOLE MOMENT
-------------
                                X             Y             Z
Electronic contribution:     -0.60137       0.85794      -0.30468
Nuclear contribution   :      0.28795      -2.74938       0.67491
                        -----------------------------------------
Total Dipole Moment    :     -0.31342      -1.89144       0.37024
                        -----------------------------------------
Magnitude (a.u.)       :      1.95266
Magnitude (Debye)      :      4.96326


Timings for individual modules:

Sum of individual times         ...      110.158 sec (=   1.836 min)
GTO integral calculation        ...        7.994 sec (=   0.133 min)   7.3 %
SCF iterations                  ...       80.359 sec (=   1.339 min)  72.9 %
SCF Gradient evaluation         ...       21.365 sec (=   0.356 min)  19.4 %
Geometry relaxation             ...        0.440 sec (=   0.007 min)   0.4 %
                             ****ORCA TERMINATED NORMALLY****
TOTAL RUN TIME: 0 days 0 hours 1 minutes 52 seconds 207 msec
