
                                 *****************
                                 * O   R   C   A *
                                 *****************

           --- An Ab Initio, DFT and Semiempirical electronic structure package ---

                  #######################################################
                  #                        -***-                        #
                  #  Department of molecular theory and spectroscopy    #
                  #              Directorship: Frank Neese              #
                  # Max Planck Institute for Chemical Energy Conversion #
                  #                  D-45470 Muelheim/Ruhr              #
                  #                       Germany                       #
                  #                                                     #
                  #                  All rights reserved                #
                  #                        -***-                        #
                  #######################################################


                         Program Version 4.0.1.2 - RELEASE -


 With contributions from (in alphabetic order):
   Daniel Aravena         : Magnetic Properties
   Michael Atanasov       : Ab Initio Ligand Field Theory
   Ute Becker             : Parallelization
   Martin Brehm           : Molecular dynamics
   Dmytro Bykov           : SCF Hessian
   Vijay G. Chilkuri      : MRCI spin determinant printing
   Dipayan Datta          : RHF DLPNO-CCSD density
   Achintya Kumar Dutta   : EOM-CC, STEOM-CC
   Dmitry Ganyushin       : Spin-Orbit,Spin-Spin,Magnetic field MRCI
   Yang Guo               : DLPNO-NEVPT2, CIM, IAO-localization
   Andreas Hansen         : Spin unrestricted coupled pair/coupled cluster methods
   Lee Huntington         : MR-EOM, pCC
   Robert Izsak           : Overlap fitted RIJCOSX, COSX-SCS-MP3, EOM
   Christian Kollmar      : KDIIS, OOCD, Brueckner-CCSD(T), CCSD density
   Simone Kossmann        : Meta GGA functionals, TD-DFT gradient, OOMP2, MP2 Hessian
   Martin Krupicka        : AUTO-CI
   Dagmar Lenk            : GEPOL surface
   Dimitrios Liakos       : Extrapolation schemes; parallel MDCI
   Dimitrios Manganas     : ROCIS; embedding schemes
   Dimitrios Pantazis     : SARC Basis sets
   Taras Petrenko         : DFT Hessian,TD-DFT gradient, ASA, ECA, R-Raman, ABS, FL, XAS/XES, NRVS
   Peter Pinski           : DLPNO-MP2
   Christoph Reimann      : Effective Core Potentials
   Marius Retegan         : Local ZFS, SOC
   Christoph Riplinger    : Optimizer, TS searches, QM/MM, DLPNO-CCSD(T), (RO)-DLPNO pert. Triples
   Tobias Risthaus        : Range-separated hybrids, TD-DFT gradient, RPA, STAB
   Michael Roemelt        : Restricted open shell CIS
   Masaaki Saitow         : Open-shell DLPNO
   Barbara Sandhoefer     : DKH picture change effects
   Kantharuban Sivalingam : CASSCF convergence, NEVPT2, FIC-MRCI
   Georgi Stoychev        : AutoAux
   Boris Wezisla          : Elementary symmetry handling
   Frank Wennmohs         : Technical directorship


 We gratefully acknowledge several colleagues who have allowed us to
 interface, adapt or use parts of their codes:
   Stefan Grimme, W. Hujo, H. Kruse,             : VdW corrections, initial TS optimization,
                  C. Bannwarth                     DFT functionals, gCP, sTDA/sTD-DF
   Ed Valeev                                     : LibInt (2-el integral package), F12 methods
   Garnet Chan, S. Sharma, J. Yang, R. Olivares  : DMRG
   Ulf Ekstrom                                   : XCFun DFT Library
   Mihaly Kallay                                 : mrcc  (arbitrary order and MRCC methods)
   Andreas Klamt, Michael Diedenhofen            : otool_cosmo (COSMO solvation model)
   Jiri Pittner, Ondrej Demel                    : Mk-CCSD
   Frank Weinhold                                : gennbo (NPA and NBO analysis)
   Christopher J. Cramer and Donald G. Truhlar   : smd solvation model


 Your calculation uses the libint2 library for the computation of 2-el integrals
 For citations please refer to: http://libint.valeyev.net

 This ORCA versions uses:
   CBLAS   interface :  Fast vector & matrix operations
   LAPACKE interface :  Fast linear algebra routines
   SCALAPACK package :  Parallel linear algebra routines


Your calculation utilizes the atom-pairwise dispersion correction
with the Becke-Johnson damping scheme (D3BJ)
Cite in your paper:
S.Grimme, S.Ehrlich, L.Goerigk, J Comput Chem, (2011), 32, 1456–1465 
S.Grimme, J.Antony, S.Ehrlich and H.Krieg, J.Chem.Phys., 132, (2010), 154104 
   

Your calculation utilizes the basis: cc-pVDZ 
       H, B-Ne : Obtained from the ccRepo (grant-hill.group.shef.ac.uk/ccrepo) Feb. 2017
                 T. H. Dunning, Jr., J. Chem. Phys. 90, 1007 (1989)
            He : Obtained from the ccRepo (grant-hill.group.shef.ac.uk/ccrepo) Feb. 2017
                 D. E. Woon, T. H. Dunning, Jr., J. Chem. Phys. 100, 2975 (1994)
  Li-Be, Na-Mg : Obtained from the ccRepo (grant-hill.group.shef.ac.uk/ccrepo) Feb. 2017
                 B. P. Prascher, D. E. Woon, K. A. Peterson, T. H. Dunning, Jr., A. K. Wilson, Theor. Chem. Acc. 128, 69 (2011)
         Al-Ar : Obtained from the ccRepo (grant-hill.group.shef.ac.uk/ccrepo) Feb. 2017
                 D. E. Woon, T. H. Dunning, Jr., J. Chem. Phys. 98, 1358 (1993)
            Ca : Obtained from the Peterson Research Group Website (tyr0.chem.wsu.edu/~kipeters) Feb. 2017
                 J. Koput, K. A. Peterson, J. Phys. Chem. 106, 9595 (2002)
         Sc-Zn : Obtained from the ccRepo (grant-hill.group.shef.ac.uk/ccrepo) Feb. 2017
                 N. B. Balabanov, K. A. Peterson, J. Chem. Phys. 123, 064107 (2005)
                 N. B. Balabanov, K. A. Peterson, J. Chem. Phys. 125, 074110 (2006)
         Ga-Kr : Obtained from the ccRepo (grant-hill.group.shef.ac.uk/ccrepo) Feb. 2017
                 A. K. Wilson, D. E. Woon, K. A. Peterson, T. H. Dunning, Jr., J. Chem. Phys. 110, 7667 (1999)

Your calculation utilizes the auxiliary basis: def2/J
   F. Weigend, Phys. Chem. Chem. Phys. 8, 1057 (2006).

================================================================================
                                        WARNINGS
                       Please study these warnings very carefully!
================================================================================

Warning: TCutStore was < 0. Adjusted to Thresh (uncritical)

WARNING: Geometry Optimization
  ===> : Switching off AutoStart
         For restart on a previous wavefunction, please use MOREAD

INFO   : the flag for use of LIBINT has been found!

================================================================================
                                       INPUT FILE
================================================================================
NAME = g8raf/frag_38_c00001.com
|  1> %pal nprocs 6 end
|  2> %maxcore 1000
|  3> ! b3lyp TIGHTSCF nopop D3BJ
|  4> ! cc-pvdz def2/J RIJCOSX
|  5> ! Opt
|  6> 
|  7> %geom
|  8> maxiter 60
|  9> TolE 1e-4
| 10> TolRMSG 2e-3
| 11> TolMaxG 3e-3
| 12> TolRMSD 2e-2
| 13> TolMaxD 3e-2
| 14> end
| 15> 
| 16> *xyz 0 1
| 17> N 5.0282 0.6689 -0.011
| 18> C 3.0445 -0.6962 -0.0079
| 19> C 1.6677 -0.7194 -0.0041
| 20> N 0.9767 -1.9304 -0.0045
| 21> N 0.9254 0.3913 -0.0017
| 22> C 1.6059 1.546 -0.0025
| 23> N 2.9392 1.6833 -0.005
| 24> C 3.6393 0.5456 -0.0071
| 25> H 5.458 0.1539 0.7482
| 26> H 5.2449 1.6617 0.0351
| 27> H 3.6277 -1.6053 -0.0342
| 28> H 1.2674 -2.5345 0.7551
| 29> H -0.016 -1.7135 0.0435
| 30> H 1.0203 2.4587 -0.0053
| 31> *
| 32> 
| 33> 
| 34>                          ****END OF INPUT****
================================================================================

                       *****************************
                       * Geometry Optimization Run *
                       *****************************

Geometry optimization settings:
Update method            Update   .... BFGS
Choice of coordinates    CoordSys .... Redundant Internals
Initial Hessian          InHess   .... Almoef's Model

Convergence Tolerances:
Energy Change            TolE     ....  1.0000e-04 Eh
Max. Gradient            TolMAXG  ....  3.0000e-03 Eh/bohr
RMS Gradient             TolRMSG  ....  2.0000e-03 Eh/bohr
Max. Displacement        TolMAXD  ....  3.0000e-02 bohr
RMS Displacement         TolRMSD  ....  2.0000e-02 bohr

------------------------------------------------------------------------------
                        ORCA OPTIMIZATION COORDINATE SETUP
------------------------------------------------------------------------------

The optimization will be done in new redundant internal coordinates
Making redundant internal coordinates   ...  (new redundants) done
Evaluating the initial hessian          ...  (Almloef) done
Evaluating the coordinates              ...  done
Calculating the B-matrix                .... done
Calculating the G-matrix                .... done
Diagonalizing the G-matrix              .... done
The first mode is                       ....   22
The number of degrees of freedom        ....   36

    -----------------------------------------------------------------
                    Redundant Internal Coordinates


    -----------------------------------------------------------------
         Definition                    Initial Value    Approx d2E/dq
    -----------------------------------------------------------------
      1. B(C   2,C   1)                  1.3770         0.655357   
      2. B(N   3,C   2)                  1.3943         0.550878   
      3. B(N   4,C   2)                  1.3359         0.682597   
      4. B(C   5,N   4)                  1.3403         0.671681   
      5. B(N   6,C   5)                  1.3404         0.671559   
      6. B(C   7,C   1)                  1.3769         0.655599   
      7. B(C   7,N   0)                  1.3944         0.550690   
      8. B(C   7,N   6)                  1.3359         0.682751   
      9. B(H   8,N   0)                  1.0131         0.427834   
     10. B(H   9,N   0)                  1.0172         0.421382   
     11. B(H  10,C   1)                  1.0804         0.373018   
     12. B(H  11,N   3)                  1.0131         0.427759   
     13. B(H  12,N   3)                  1.0173         0.421331   
     14. B(H  13,C   5)                  1.0844         0.367564   
     15. A(H   8,N   0,H   9)          111.8270         0.301430   
     16. A(C   7,N   0,H   8)          112.0576         0.350857   
     17. A(C   7,N   0,H   9)          107.3600         0.349958   
     18. A(C   2,C   1,C   7)          116.5588         0.442868   
     19. A(C   2,C   1,H  10)          121.7092         0.358383   
     20. A(C   7,C   1,H  10)          121.7161         0.358406   
     21. A(N   3,C   2,N   4)          116.5353         0.426723   
     22. A(C   1,C   2,N   3)          120.6744         0.426401   
     23. A(C   1,C   2,N   4)          122.7902         0.443177   
     24. A(C   2,N   3,H  12)          107.3633         0.349971   
     25. A(H  11,N   3,H  12)          111.8246         0.301415   
     26. A(C   2,N   3,H  11)          112.0536         0.350867   
     27. A(C   2,N   4,C   5)          115.7322         0.442224   
     28. A(N   6,C   5,H  13)          116.8048         0.356753   
     29. A(N   4,C   5,N   6)          126.3916         0.440923   
     30. A(N   4,C   5,H  13)          116.8031         0.356764   
     31. A(C   5,N   6,C   7)          115.7273         0.442227   
     32. A(N   0,C   7,C   1)          120.6665         0.426403   
     33. A(C   1,C   7,N   6)          122.7998         0.443224   
     34. A(N   0,C   7,N   6)          116.5336         0.426714   
     35. D(N   3,C   2,C   1,H  10)      1.4291         0.029939   
     36. D(N   4,C   2,C   1,H  10)   -178.4786         0.029939   
     37. D(N   3,C   2,C   1,C   7)   -179.9966         0.029939   
     38. D(N   4,C   2,C   1,C   7)      0.0957         0.029939   
     39. D(H  12,N   3,C   2,C   1)    177.3547         0.024191   
     40. D(H  11,N   3,C   2,C   1)     54.1976         0.024191   
     41. D(H  11,N   3,C   2,N   4)   -125.8891         0.024191   
     42. D(H  12,N   3,C   2,N   4)     -2.7321         0.024191   
     43. D(C   5,N   4,C   2,N   3)   -179.9455         0.034728   
     44. D(C   5,N   4,C   2,C   1)     -0.0342         0.034728   
     45. D(H  13,C   5,N   4,C   2)    179.7208         0.033529   
     46. D(N   6,C   5,N   4,C   2)     -0.0232         0.033529   
     47. D(C   7,N   6,C   5,H  13)   -179.7318         0.033516   
     48. D(C   7,N   6,C   5,N   4)      0.0122         0.033516   
     49. D(C   1,C   7,N   0,H   8)    -54.2017         0.024174   
     50. D(C   1,C   7,N   6,C   5)      0.0568         0.034745   
     51. D(N   6,C   7,C   1,H  10)    178.4665         0.029963   
     52. D(N   6,C   7,C   1,C   2)     -0.1077         0.029963   
     53. D(N   0,C   7,C   1,H  10)     -1.4132         0.029963   
     54. D(N   0,C   7,C   1,C   2)   -179.9874         0.029963   
     55. D(N   6,C   7,N   0,H   9)      2.7511         0.024174   
     56. D(N   0,C   7,N   6,C   5)    179.9411         0.034745   
     57. D(N   6,C   7,N   0,H   8)    125.9113         0.024174   
     58. D(C   1,C   7,N   0,H   9)   -177.3620         0.024174   
    -----------------------------------------------------------------

Number of atoms                         .... 14
Number of degrees of freedom            .... 58

         *************************************************************
         *                GEOMETRY OPTIMIZATION CYCLE   1            *
         *************************************************************
---------------------------------
CARTESIAN COORDINATES (ANGSTROEM)
---------------------------------
  N      5.028200    0.668900   -0.011000
  C      3.044500   -0.696200   -0.007900
  C      1.667700   -0.719400   -0.004100
  N      0.976700   -1.930400   -0.004500
  N      0.925400    0.391300   -0.001700
  C      1.605900    1.546000   -0.002500
  N      2.939200    1.683300   -0.005000
  C      3.639300    0.545600   -0.007100
  H      5.458000    0.153900    0.748200
  H      5.244900    1.661700    0.035100
  H      3.627700   -1.605300   -0.034200
  H      1.267400   -2.534500    0.755100
  H     -0.016000   -1.713500    0.043500
  H      1.020300    2.458700   -0.005300

----------------------------
CARTESIAN COORDINATES (A.U.)
----------------------------
  NO LB      ZA    FRAG     MASS         X           Y           Z
   0 N     7.0000    0    14.007    9.501921    1.264038   -0.020787
   1 C     6.0000    0    12.011    5.753271   -1.315627   -0.014929
   2 C     6.0000    0    12.011    3.151496   -1.359469   -0.007748
   3 N     7.0000    0    14.007    1.845696   -3.647927   -0.008504
   4 N     7.0000    0    14.007    1.748753    0.739450   -0.003213
   5 C     6.0000    0    12.011    3.034711    2.921517   -0.004724
   6 N     7.0000    0    14.007    5.554283    3.180976   -0.009449
   7 C     6.0000    0    12.011    6.877280    1.031035   -0.013417
   8 H     1.0000    0     1.008   10.314125    0.290829    1.413893
   9 H     1.0000    0     1.008    9.911425    3.140158    0.066329
  10 H     1.0000    0     1.008    6.855359   -3.033577   -0.064629
  11 H     1.0000    0     1.008    2.395039   -4.789511    1.426932
  12 H     1.0000    0     1.008   -0.030236   -3.238046    0.082203
  13 H     1.0000    0     1.008    1.928088    4.646270   -0.010016

--------------------------------
INTERNAL COORDINATES (ANGSTROEM)
--------------------------------
 N      0   0   0     0.000000000000     0.00000000     0.00000000
 C      1   0   0     2.408022697152     0.00000000     0.00000000
 C      2   1   0     1.377000697168   146.43121396     0.00000000
 N      3   2   1     1.394274779231   120.67439931   179.99196807
 N      3   2   1     1.335915244318   122.79024827     0.08428258
 C      5   3   2     1.340303316418   115.73224638   359.96579987
 N      6   5   3     1.340353099000   126.39159909   359.97680459
 C      7   6   5     1.335853925398   115.72730745     0.00000000
 H      1   2   3     1.013083254229    93.45963816   131.16181584
 H      1   2   3     1.017219710780   136.77937025     3.69838217
 H      2   1   9     1.080405821902    91.85106402   309.93863415
 H      4   3   2     1.013131511700   112.05357267    54.19764098
 H      4   3   2     1.017252623491   107.36326510   177.35465435
 H      6   5   3     1.084415275621   116.80310247   179.72078273

---------------------------
INTERNAL COORDINATES (A.U.)
---------------------------
 N      0   0   0     0.000000000000     0.00000000     0.00000000
 C      1   0   0     4.550503421884     0.00000000     0.00000000
 C      2   1   0     2.602154203865   146.43121396     0.00000000
 N      3   2   1     2.634797488180   120.67439931   179.99196807
 N      3   2   1     2.524513949891   122.79024827     0.08428258
 C      5   3   2     2.532806204416   115.73224638   359.96579987
 N      6   5   3     2.532900279863   126.39159909   359.97680459
 C      7   6   5     2.524398073925   115.72730745     0.00000000
 H      1   2   3     1.914449901355    93.45963816   131.16181584
 H      1   2   3     1.922266671401   136.77937025     3.69838217
 H      2   1   9     2.041671116889    91.85106402   309.93863415
 H      4   3   2     1.914541094759   112.05357267    54.19764098
 H      4   3   2     1.922328867412   107.36326510   177.35465435
 H      6   5   3     2.049247886364   116.80310247   179.72078273

---------------------
BASIS SET INFORMATION
---------------------
There are 3 groups of distinct atoms

 Group   1 Type N   : 17s4p1d contracted to 3s2p1d pattern {881/31/1}
 Group   2 Type C   : 17s4p1d contracted to 3s2p1d pattern {881/31/1}
 Group   3 Type H   : 4s1p contracted to 2s1p pattern {31/1}

Atom   0N    basis set group =>   1
Atom   1C    basis set group =>   2
Atom   2C    basis set group =>   2
Atom   3N    basis set group =>   1
Atom   4N    basis set group =>   1
Atom   5C    basis set group =>   2
Atom   6N    basis set group =>   1
Atom   7C    basis set group =>   2
Atom   8H    basis set group =>   3
Atom   9H    basis set group =>   3
Atom  10H    basis set group =>   3
Atom  11H    basis set group =>   3
Atom  12H    basis set group =>   3
Atom  13H    basis set group =>   3
-------------------------------
AUXILIARY BASIS SET INFORMATION
-------------------------------
There are 3 groups of distinct atoms

 Group   1 Type N   : 12s5p4d2f1g contracted to 6s4p3d1f1g pattern {711111/2111/211/2/1}
 Group   2 Type C   : 12s5p4d2f1g contracted to 6s4p3d1f1g pattern {711111/2111/211/2/1}
 Group   3 Type H   : 5s2p1d contracted to 3s1p1d pattern {311/2/1}

Atom   0N    basis set group =>   1
Atom   1C    basis set group =>   2
Atom   2C    basis set group =>   2
Atom   3N    basis set group =>   1
Atom   4N    basis set group =>   1
Atom   5C    basis set group =>   2
Atom   6N    basis set group =>   1
Atom   7C    basis set group =>   2
Atom   8H    basis set group =>   3
Atom   9H    basis set group =>   3
Atom  10H    basis set group =>   3
Atom  11H    basis set group =>   3
Atom  12H    basis set group =>   3
Atom  13H    basis set group =>   3


           ************************************************************
           *        Program running with 6 parallel MPI-processes     *
           *              working on a common directory               *
           ************************************************************
------------------------------------------------------------------------------
                           ORCA GTO INTEGRAL CALCULATION
                           -- RI-GTO INTEGRALS CHOSEN --
------------------------------------------------------------------------------

                         BASIS SET STATISTICS AND STARTUP INFO

Gaussian basis set:
 # of primitive gaussian shells          ...  206
 # of primitive gaussian functions       ...  314
 # of contracted shells                  ...   66
 # of contracted basis functions         ...  142
 Highest angular momentum                ...    2
 Maximum contraction depth               ...    8
Auxiliary gaussian basis set:
 # of primitive gaussian shells          ...  240
 # of primitive gaussian functions       ...  656
 # of contracted shells                  ...  150
 # of contracted aux-basis functions     ...  458
 Highest angular momentum                ...    4
 Maximum contraction depth               ...    7
Ratio of auxiliary to basis functions    ...  3.23
Integral package used                  ... LIBINT
 One Electron integrals                  ... done
 Ordering auxiliary basis shells         ... done
 Integral threshhold             Thresh  ...  2.500e-11
 Primitive cut-off               TCut    ...  2.500e-12
 Pre-screening matrix                    ... done
 Shell pair data                         ... 
 Ordering of the shell pairs             ... done (   0.000 sec) 2150 of 2211 pairs
 Determination of significant pairs      ... done (   0.000 sec)
 Creation of shell pair data             ... done (   0.001 sec)
 Storage of shell pair data              ... done (   0.002 sec)
 Shell pair data done in (   0.004 sec)
 Computing two index integrals           ... done
 Cholesky decomposition of the V-matrix  ... done


Timings:
 Total evaluation time                   ...   0.362 sec (  0.006 min)
 One electron matrix time                ...   0.040 sec (  0.001 min) = 11.1%
 Schwartz matrix evaluation time         ...   0.282 sec (  0.005 min) = 78.0%
 Two index repulsion integral time       ...   0.007 sec (  0.000 min) =  2.0%
 Cholesky decomposition of V             ...   0.005 sec (  0.000 min) =  1.4%
 Three index repulsion integral time     ...   0.000 sec (  0.000 min) =  0.0%



           ************************************************************
           *        Program running with 6 parallel MPI-processes     *
           *              working on a common directory               *
           ************************************************************
-------------------------------------------------------------------------------
                                 ORCA SCF
-------------------------------------------------------------------------------

------------
SCF SETTINGS
------------
Hamiltonian:
 Density Functional     Method          .... DFT(GTOs)
 Exchange Functional    Exchange        .... B88
   X-Alpha parameter    XAlpha          ....  0.666667
   Becke's b parameter  XBeta           ....  0.004200
 Correlation Functional Correlation     .... LYP
 LDA part of GGA corr.  LDAOpt          .... VWN-5
 Gradients option       PostSCFGGA      .... off
 Hybrid DFT is turned on
   Fraction HF Exchange ScalHFX         ....  0.200000
   Scaling of DF-GGA-X  ScalDFX         ....  0.720000
   Scaling of DF-GGA-C  ScalDFC         ....  0.810000
   Scaling of DF-LDA-C  ScalLDAC        ....  1.000000
   Perturbative correction              ....  0.000000
   NL short-range parameter             ....  4.800000
 RI-approximation to the Coulomb term is turned on
   Number of auxiliary basis functions  .... 458
   RIJ-COSX (HFX calculated with COS-X)).... on


General Settings:
 Integral files         IntName         .... g8raf/frag_38_c00001
 Hartree-Fock type      HFTyp           .... RHF
 Total Charge           Charge          ....    0
 Multiplicity           Mult            ....    1
 Number of Electrons    NEL             ....   58
 Basis Dimension        Dim             ....  142
 Nuclear Repulsion      ENuc            ....    355.9230132954 Eh

Convergence Acceleration:
 DIIS                   CNVDIIS         .... on
   Start iteration      DIISMaxIt       ....    12
   Startup error        DIISStart       ....  0.200000
   # of expansion vecs  DIISMaxEq       ....     5
   Bias factor          DIISBfac        ....   1.050
   Max. coefficient     DIISMaxC        ....  10.000
 Newton-Raphson         CNVNR           .... off
 SOSCF                  CNVSOSCF        .... on
   Start iteration      SOSCFMaxIt      ....   150
   Startup grad/error   SOSCFStart      ....  0.003300
 Level Shifting         CNVShift        .... on
   Level shift para.    LevelShift      ....    0.2500
   Turn off err/grad.   ShiftErr        ....    0.0010
 Zerner damping         CNVZerner       .... off
 Static damping         CNVDamp         .... on
   Fraction old density DampFac         ....    0.7000
   Max. Damping (<1)    DampMax         ....    0.9800
   Min. Damping (>=0)   DampMin         ....    0.0000
   Turn off err/grad.   DampErr         ....    0.1000
 Fernandez-Rico         CNVRico         .... off

SCF Procedure:
 Maximum # iterations   MaxIter         ....   125
 SCF integral mode      SCFMode         .... Direct
   Integral package                     .... LIBINT
 Reset frequeny         DirectResetFreq ....    20
 Integral Threshold     Thresh          ....  2.500e-11 Eh
 Primitive CutOff       TCut            ....  2.500e-12 Eh

Convergence Tolerance:
 Convergence Check Mode ConvCheckMode   .... Total+1el-Energy
 Convergence forced     ConvForced      .... 0
 Energy Change          TolE            ....  1.000e-08 Eh
 1-El. energy change                    ....  1.000e-05 Eh
 Orbital Gradient       TolG            ....  1.000e-05
 Orbital Rotation angle TolX            ....  1.000e-05
 DIIS Error             TolErr          ....  5.000e-07


Diagonalization of the overlap matrix:
Smallest eigenvalue                        ... 9.495e-04
Time for diagonalization                   ...    0.005 sec
Threshold for overlap eigenvalues          ... 1.000e-08
Number of eigenvalues below threshold      ... 0
Time for construction of square roots      ...    0.002 sec
Total time needed                          ...    0.008 sec

-------------------
DFT GRID GENERATION
-------------------

General Integration Accuracy     IntAcc      ...  4.340
Radial Grid Type                 RadialGrid  ... Gauss-Chebyshev
Angular Grid (max. acc.)         AngularGrid ... Lebedev-110
Angular grid pruning method      GridPruning ... 3 (G Style)
Weight generation scheme         WeightScheme... Becke
Basis function cutoff            BFCut       ...    1.0000e-11
Integration weight cutoff        WCut        ...    1.0000e-14
Grids for H and He will be reduced by one unit

# of grid points (after initial pruning)     ...  18196 (   0.0 sec)
# of grid points (after weights+screening)   ...  17047 (   0.0 sec)
nearest neighbour list constructed           ...    0.0 sec
Grid point re-assignment to atoms done       ...    0.0 sec
Grid point division into batches done        ...    0.0 sec
Reduced shell lists constructed in    0.1 sec

Total number of grid points                  ...    17047
Total number of batches                      ...      273
Average number of points per batch           ...       62
Average number of grid points per atom       ...     1218
Average number of shells per batch           ...    57.70 (87.43%)
Average number of basis functions per batch  ...   122.77 (86.45%)
Average number of large shells per batch     ...    47.11 (81.64%)
Average number of large basis fcns per batch ...   101.83 (82.95%)
Maximum spatial batch extension              ...  13.22,  6.94, 21.29 au
Average spatial batch extension              ...   0.36,  0.33,  0.57 au

Time for grid setup =    0.087 sec

------------------------------
INITIAL GUESS: MODEL POTENTIAL
------------------------------
Loading Hartree-Fock densities                     ... done
Calculating cut-offs                               ... done
Setting up the integral package                    ... done
Initializing the effective Hamiltonian             ... done
Starting the Coulomb interaction                   ... done (   0.0 sec)
Reading the grid                                   ... done
Mapping shells                                     ... done
Starting the XC term evaluation                    ... done (   0.1 sec)
  promolecular density results
     # of electrons  =     58.001739198
     EX              =    -48.678363456
     EC              =     -1.986431940
     EX+EC           =    -50.664795397
Transforming the Hamiltonian                       ... done (   0.0 sec)
Diagonalizing the Hamiltonian                      ... done (   0.0 sec)
Back transforming the eigenvectors                 ... done (   0.0 sec)
Now organizing SCF variables                       ... done
                      ------------------
                      INITIAL GUESS DONE (   0.3 sec)
                      ------------------
--------------------
COSX GRID GENERATION
--------------------

General Integration Accuracy     IntAcc      ...  3.340
Radial Grid Type                 RadialGrid  ... Gauss-Chebyshev
Angular Grid (max. acc.)         AngularGrid ... Lebedev-50
Angular grid pruning method      GridPruning ... 3 (G Style)
Weight generation scheme         WeightScheme... Becke
Basis function cutoff            BFCut       ...    1.0000e-11
Integration weight cutoff        WCut        ...    1.0000e-14
Grids for H and He will be reduced by one unit

# of grid points (after initial pruning)     ...   6504 (   0.0 sec)
# of grid points (after weights+screening)   ...   6163 (   0.0 sec)
nearest neighbour list constructed           ...    0.0 sec
Grid point re-assignment to atoms done       ...    0.0 sec
Grid point division into batches done        ...    0.0 sec
Reduced shell lists constructed in    0.0 sec

Total number of grid points                  ...     6163
Total number of batches                      ...      104
Average number of points per batch           ...       59
Average number of grid points per atom       ...      440
Average number of shells per batch           ...    57.00 (86.36%)
Average number of basis functions per batch  ...   121.11 (85.29%)
Average number of large shells per batch     ...    48.95 (85.87%)
Average number of large basis fcns per batch ...   105.16 (86.83%)
Maximum spatial batch extension              ...  10.25,  5.80, 17.89 au
Average spatial batch extension              ...   0.49,  0.42,  0.73 au

Overlap Fitting                  UseSFitting ... on
Constructing numerical overlap ... done (      0.0 sec)
Inverting numerical overlap    ... done (      0.0 sec)
Obtaining analytic overlap     ... done (      0.0 sec)
Final contraction and storage  ... done (      0.0 sec)


General Integration Accuracy     IntAcc      ...  3.670
Radial Grid Type                 RadialGrid  ... Gauss-Chebyshev
Angular Grid (max. acc.)         AngularGrid ... Lebedev-50
Angular grid pruning method      GridPruning ... 3 (G Style)
Weight generation scheme         WeightScheme... Becke
Basis function cutoff            BFCut       ...    1.0000e-11
Integration weight cutoff        WCut        ...    1.0000e-14
Grids for H and He will be reduced by one unit

# of grid points (after initial pruning)     ...   8264 (   0.0 sec)
# of grid points (after weights+screening)   ...   7820 (   0.0 sec)
nearest neighbour list constructed           ...    0.0 sec
Grid point re-assignment to atoms done       ...    0.0 sec
Grid point division into batches done        ...    0.0 sec
Reduced shell lists constructed in    0.0 sec

Total number of grid points                  ...     7820
Total number of batches                      ...      129
Average number of points per batch           ...       60
Average number of grid points per atom       ...      559
Average number of shells per batch           ...    57.13 (86.56%)
Average number of basis functions per batch  ...   121.65 (85.67%)
Average number of large shells per batch     ...    48.39 (84.70%)
Average number of large basis fcns per batch ...   104.22 (85.67%)
Maximum spatial batch extension              ...  11.04,  6.58, 19.26 au
Average spatial batch extension              ...   0.47,  0.40,  0.71 au

Overlap Fitting                  UseSFitting ... on
Constructing numerical overlap ... done (      0.0 sec)
Inverting numerical overlap    ... done (      0.0 sec)
Obtaining analytic overlap     ... done (      0.0 sec)
Final contraction and storage  ... done (      0.0 sec)


General Integration Accuracy     IntAcc      ...  4.010
Radial Grid Type                 RadialGrid  ... Gauss-Chebyshev
Angular Grid (max. acc.)         AngularGrid ... Lebedev-110
Angular grid pruning method      GridPruning ... 3 (G Style)
Weight generation scheme         WeightScheme... Becke
Basis function cutoff            BFCut       ...    1.0000e-11
Integration weight cutoff        WCut        ...    1.0000e-14
Grids for H and He will be reduced by one unit

# of grid points (after initial pruning)     ...  15752 (   0.0 sec)
# of grid points (after weights+screening)   ...  14784 (   0.0 sec)
nearest neighbour list constructed           ...    0.0 sec
Grid point re-assignment to atoms done       ...    0.0 sec
Grid point division into batches done        ...    0.0 sec
Reduced shell lists constructed in    0.0 sec

Total number of grid points                  ...    14784
Total number of batches                      ...      240
Average number of points per batch           ...       61
Average number of grid points per atom       ...     1056
Average number of shells per batch           ...    57.51 (87.14%)
Average number of basis functions per batch  ...   122.63 (86.36%)
Average number of large shells per batch     ...    47.51 (82.61%)
Average number of large basis fcns per batch ...   102.44 (83.53%)
Maximum spatial batch extension              ...  12.55,  6.64, 20.30 au
Average spatial batch extension              ...   0.37,  0.34,  0.61 au

Overlap Fitting                  UseSFitting ... on
Constructing numerical overlap ... done (      0.0 sec)
Inverting numerical overlap    ... done (      0.0 sec)
Obtaining analytic overlap     ... done (      0.0 sec)
Final contraction and storage  ... done (      0.0 sec)

Time for X-Grid setup             =    0.313 sec
--------------
SCF ITERATIONS
--------------
ITER       Energy         Delta-E        Max-DP      RMS-DP      [F,P]     Damp
               ***  Starting incremental Fock matrix formation  ***
  0   -374.5921562651   0.000000000000 0.07531376  0.00272105  0.2328844 0.7000
  1   -374.7204375017  -0.128281236640 0.04799686  0.00195194  0.1125051 0.7000
                               ***Turning on DIIS***
  2   -374.7710427201  -0.050605218443 0.07641340  0.00317272  0.0390699 0.0000
  3   -374.8455318143  -0.074489094153 0.03108159  0.00131457  0.0589724 0.0000
  4   -374.8644869471  -0.018955132776 0.01060364  0.00044755  0.0122952 0.0000
                      *** Initiating the SOSCF procedure ***
                           *** Shutting down DIIS ***
                      *** Re-Reading the Fockian *** 
                      *** Removing any level shift *** 
ITER      Energy       Delta-E        Grad      Rot      Max-DP    RMS-DP
  5   -374.86548611  -0.0009991600  0.001187  0.001187  0.002779  0.000138
               *** Restarting incremental Fock matrix formation ***
  6   -374.86556294  -0.0000768301  0.000510  0.001709  0.002062  0.000082
  7   -374.86556611  -0.0000031763  0.000361  0.000761  0.001168  0.000024
  8   -374.86557016  -0.0000040485  0.000101  0.000269  0.000388  0.000017
  9   -374.86557014   0.0000000178  0.000093  0.000120  0.000177  0.000006
 10   -374.86557043  -0.0000002851  0.000020  0.000039  0.000062  0.000003
 11   -374.86557043  -0.0000000019  0.000022  0.000021  0.000035  0.000001
 12   -374.86557045  -0.0000000150  0.000003  0.000008  0.000010  0.000001
 13   -374.86557045  -0.0000000016  0.000004  0.000004  0.000006  0.000000
                  ***Gradient check signals convergence***
              ***Rediagonalizing the Fockian in SOSCF/NRSCF***

               *****************************************************
               *                     SUCCESS                       *
               *           SCF CONVERGED AFTER  14 CYCLES          *
               *****************************************************

Setting up the final grid:

General Integration Accuracy     IntAcc      ...  4.670
Radial Grid Type                 RadialGrid  ... Gauss-Chebyshev
Angular Grid (max. acc.)         AngularGrid ... Lebedev-302
Angular grid pruning method      GridPruning ... 3 (G Style)
Weight generation scheme         WeightScheme... Becke
Basis function cutoff            BFCut       ...    1.0000e-11
Integration weight cutoff        WCut        ...    1.0000e-14
Grids for H and He will be reduced by one unit

# of grid points (after initial pruning)     ...  70060 (   0.0 sec)
# of grid points (after weights+screening)   ...  64749 (   0.1 sec)
nearest neighbour list constructed           ...    0.0 sec
Grid point re-assignment to atoms done       ...    0.0 sec
Grid point division into batches done        ...    0.3 sec
Reduced shell lists constructed in    0.4 sec

Total number of grid points                  ...    64749
Total number of batches                      ...     1020
Average number of points per batch           ...       63
Average number of grid points per atom       ...     4625
Average number of shells per batch           ...    56.26 (85.24%)
Average number of basis functions per batch  ...   119.51 (84.16%)
Average number of large shells per batch     ...    44.51 (79.13%)
Average number of large basis fcns per batch ...    95.92 (80.26%)
Maximum spatial batch extension              ...  13.61,  9.64, 21.56 au
Average spatial batch extension              ...   0.23,  0.22,  0.28 au

Final grid set up in    0.5 sec
Final integration                            ... done (   0.3 sec)
Change in XC energy                          ...    -0.000016798
Integrated number of electrons               ...    57.999968539
Previous integrated no of electrons          ...    58.003129181
Old exchange energy                            =     -9.879580670 Eh
New exchange energy                            =     -9.879387357 Eh
Exchange energy change after final integration =      0.000193313 Eh
Total energy after final integration           =   -374.865393931 Eh
Final COS-X integration done in                =     1.600 sec

----------------
TOTAL SCF ENERGY
----------------

Total Energy       :         -374.86539393 Eh          -10200.60596 eV

Components:
Nuclear Repulsion  :          355.92301330 Eh            9685.15758 eV
Electronic Energy  :         -730.78840723 Eh          -19885.76353 eV
One Electron Energy:        -1212.98743369 Eh          -33007.06612 eV
Two Electron Energy:          482.19902646 Eh           13121.30258 eV

Virial components:
Potential Energy   :         -747.69217136 Eh          -20345.73834 eV
Kinetic Energy     :          372.82677743 Eh           10145.13238 eV
Virial Ratio       :            2.00546800


DFT components:
N(Alpha)           :       28.999984269356 electrons
N(Beta)            :       28.999984269356 electrons
N(Total)           :       57.999968538712 electrons
E(X)               :      -39.272634267745 Eh       
E(C)               :       -2.343262539836 Eh       
E(XC)              :      -41.615896807580 Eh       

---------------
SCF CONVERGENCE
---------------

  Last Energy change         ...    1.0737e-09  Tolerance :   1.0000e-08
  Last MAX-Density change    ...    3.1588e-13  Tolerance :   1.0000e-07
  Last RMS-Density change    ...    3.1059e-15  Tolerance :   5.0000e-09
  Last Orbital Gradient      ...    3.7072e-07  Tolerance :   1.0000e-05
  Last Orbital Rotation      ...    1.1884e-06  Tolerance :   1.0000e-05

             **** THE GBW FILE WAS UPDATED (g8raf/frag_38_c00001.gbw) ****
             **** DENSITY FILE WAS UPDATED (g8raf/frag_38_c00001.scfp.tmp) ****
             **** ENERGY FILE WAS UPDATED (g8raf/frag_38_c00001.en.tmp) ****
----------------
ORBITAL ENERGIES
----------------

  NO   OCC          E(Eh)            E(eV) 
   0   2.0000     -14.333725      -390.0405 
   1   2.0000     -14.333562      -390.0361 
   2   2.0000     -14.311186      -389.4272 
   3   2.0000     -14.311169      -389.4267 
   4   2.0000     -10.255025      -279.0534 
   5   2.0000     -10.254920      -279.0506 
   6   2.0000     -10.243758      -278.7468 
   7   2.0000     -10.177635      -276.9475 
   8   2.0000      -0.988289       -26.8927 
   9   2.0000      -0.937565       -25.5124 
  10   2.0000      -0.896885       -24.4055 
  11   2.0000      -0.840240       -22.8641 
  12   2.0000      -0.765874       -20.8405 
  13   2.0000      -0.651811       -17.7367 
  14   2.0000      -0.621329       -16.9072 
  15   2.0000      -0.549004       -14.9392 
  16   2.0000      -0.530024       -14.4227 
  17   2.0000      -0.488550       -13.2941 
  18   2.0000      -0.472972       -12.8702 
  19   2.0000      -0.460845       -12.5402 
  20   2.0000      -0.433968       -11.8089 
  21   2.0000      -0.419907       -11.4263 
  22   2.0000      -0.409371       -11.1396 
  23   2.0000      -0.350367        -9.5340 
  24   2.0000      -0.311657        -8.4806 
  25   2.0000      -0.290949        -7.9171 
  26   2.0000      -0.252610        -6.8739 
  27   2.0000      -0.241232        -6.5642 
  28   2.0000      -0.234088        -6.3699 
  29   0.0000      -0.013492        -0.3671 
  30   0.0000       0.002582         0.0703 
  31   0.0000       0.061176         1.6647 
  32   0.0000       0.069795         1.8992 
  33   0.0000       0.102968         2.8019 
  34   0.0000       0.113298         3.0830 
  35   0.0000       0.127489         3.4692 
  36   0.0000       0.131051         3.5661 
  37   0.0000       0.167923         4.5694 
  38   0.0000       0.227865         6.2005 
  39   0.0000       0.266172         7.2429 
  40   0.0000       0.282176         7.6784 
  41   0.0000       0.312030         8.4908 
  42   0.0000       0.340492         9.2653 
  43   0.0000       0.343583         9.3494 
  44   0.0000       0.416484        11.3331 
  45   0.0000       0.418698        11.3933 
  46   0.0000       0.456744        12.4286 
  47   0.0000       0.474729        12.9180 
  48   0.0000       0.484287        13.1781 
  49   0.0000       0.518757        14.1161 
  50   0.0000       0.523448        14.2437 
  51   0.0000       0.535956        14.5841 
  52   0.0000       0.541252        14.7282 
  53   0.0000       0.557378        15.1670 
  54   0.0000       0.577442        15.7130 
  55   0.0000       0.588253        16.0072 
  56   0.0000       0.606807        16.5121 
  57   0.0000       0.632333        17.2067 
  58   0.0000       0.642591        17.4858 
  59   0.0000       0.649309        17.6686 
  60   0.0000       0.655170        17.8281 
  61   0.0000       0.702690        19.1212 
  62   0.0000       0.733271        19.9533 
  63   0.0000       0.743637        20.2354 
  64   0.0000       0.757093        20.6016 
  65   0.0000       0.789348        21.4792 
  66   0.0000       0.812112        22.0987 
  67   0.0000       0.823815        22.4171 
  68   0.0000       0.839567        22.8458 
  69   0.0000       0.863335        23.4925 
  70   0.0000       0.872070        23.7302 
  71   0.0000       0.898820        24.4581 
  72   0.0000       0.940760        25.5994 
  73   0.0000       0.942348        25.6426 
  74   0.0000       0.960965        26.1492 
  75   0.0000       0.988154        26.8890 
  76   0.0000       0.989369        26.9221 
  77   0.0000       1.008414        27.4403 
  78   0.0000       1.043279        28.3891 
  79   0.0000       1.082809        29.4647 
  80   0.0000       1.096679        29.8422 
  81   0.0000       1.103282        30.0218 
  82   0.0000       1.147242        31.2180 
  83   0.0000       1.179221        32.0882 
  84   0.0000       1.268308        34.5124 
  85   0.0000       1.274205        34.6729 
  86   0.0000       1.341019        36.4910 
  87   0.0000       1.355205        36.8770 
  88   0.0000       1.407564        38.3018 
  89   0.0000       1.410207        38.3737 
  90   0.0000       1.443731        39.2859 
  91   0.0000       1.512486        41.1568 
  92   0.0000       1.519587        41.3501 
  93   0.0000       1.532020        41.6884 
  94   0.0000       1.549592        42.1665 
  95   0.0000       1.567922        42.6653 
  96   0.0000       1.607210        43.7344 
  97   0.0000       1.622165        44.1414 
  98   0.0000       1.662978        45.2519 
  99   0.0000       1.665629        45.3241 
 100   0.0000       1.710655        46.5493 
 101   0.0000       1.722374        46.8682 
 102   0.0000       1.728636        47.0386 
 103   0.0000       1.739717        47.3401 
 104   0.0000       1.772636        48.2359 
 105   0.0000       1.803540        49.0768 
 106   0.0000       1.845485        50.2182 
 107   0.0000       1.862307        50.6760 
 108   0.0000       1.896046        51.5940 
 109   0.0000       1.911769        52.0219 
 110   0.0000       1.929878        52.5147 
 111   0.0000       1.975942        53.7681 
 112   0.0000       2.020121        54.9703 
 113   0.0000       2.044661        55.6381 
 114   0.0000       2.061179        56.0875 
 115   0.0000       2.088488        56.8306 
 116   0.0000       2.111977        57.4698 
 117   0.0000       2.128280        57.9135 
 118   0.0000       2.200970        59.8915 
 119   0.0000       2.221535        60.4510 
 120   0.0000       2.238531        60.9135 
 121   0.0000       2.288514        62.2736 
 122   0.0000       2.334544        63.5262 
 123   0.0000       2.394819        65.1663 
 124   0.0000       2.469310        67.1933 
 125   0.0000       2.486032        67.6484 
 126   0.0000       2.504628        68.1544 
 127   0.0000       2.531505        68.8857 
 128   0.0000       2.546702        69.2993 
 129   0.0000       2.606181        70.9178 
 130   0.0000       2.612008        71.0763 
 131   0.0000       2.657779        72.3218 
 132   0.0000       2.678800        72.8939 
 133   0.0000       2.777198        75.5714 
 134   0.0000       2.817436        76.6663 
 135   0.0000       2.827499        76.9402 
 136   0.0000       2.863066        77.9080 
 137   0.0000       2.897277        78.8389 
 138   0.0000       2.962318        80.6088 
 139   0.0000       3.126426        85.0744 
 140   0.0000       3.129270        85.1518 
 141   0.0000       3.426408        93.2373 
-------
TIMINGS
-------

Total SCF time: 0 days 0 hours 0 min 18 sec 

Total time                  ....      18.423 sec
Sum of individual times     ....      18.361 sec  ( 99.7%)

Fock matrix formation       ....      17.030 sec  ( 92.4%)
  Split-RI-J                ....       3.266 sec  ( 19.2% of F)
  Chain of spheres X        ....      12.270 sec  ( 72.0% of F)
  COS-X 1 center corr.      ....       0.000 sec  (  0.0% of F)
  XC integration            ....       1.350 sec  (  7.9% of F)
    Basis function eval.    ....       0.469 sec  ( 34.7% of XC)
    Density eval.           ....       0.215 sec  ( 15.9% of XC)
    XC-Functional eval.     ....       0.055 sec  (  4.0% of XC)
    XC-Potential eval.      ....       0.465 sec  ( 34.5% of XC)
Diagonalization             ....       0.035 sec  (  0.2%)
Density matrix formation    ....       0.018 sec  (  0.1%)
Population analysis         ....       0.000 sec  (  0.0%)
Initial guess               ....       0.238 sec  (  1.3%)
Orbital Transformation      ....       0.000 sec  (  0.0%)
Orbital Orthonormalization  ....       0.000 sec  (  0.0%)
DIIS solution               ....       0.010 sec  (  0.1%)
SOSCF solution              ....       0.099 sec  (  0.5%)
Grid generation             ....       0.931 sec  (  5.1%)


-------------------------------------------------------------------------------
                          DFT DISPERSION CORRECTION                            
                                                                               
                              DFTD3 V3.1  Rev 1                                
                          USING Becke-Johnson damping                          
-------------------------------------------------------------------------------
The B3LYP functional is recognized
Active option DFTDOPT                   ...         4   

molecular C6(AA) [au] = 2214.471284 


            DFT-D V3
 parameters
 s6 scaling factor         :     1.0000 
 a1 scaling factor         :     0.3981 
 s8 scaling factor         :     1.9889 
 a2 scaling factor         :     4.4211 
 ad hoc parameters k1-k3   :    16.0000     1.3333    -4.0000 

 Edisp/kcal,au: -14.415461705927  -0.022972498048 
 E6   /kcal   :  -6.802724021 
 E8   /kcal   :  -7.612737685 
 % E8         :  52.809530767 

-------------------------   ----------------
Dispersion correction           -0.022972498
-------------------------   ----------------


-------------------------   --------------------
FINAL SINGLE POINT ENERGY      -374.888366429097
-------------------------   --------------------



           ************************************************************
           *        Program running with 6 parallel MPI-processes     *
           *              working on a common directory               *
           ************************************************************
------------------------------------------------------------------------------
                         ORCA SCF GRADIENT CALCULATION
------------------------------------------------------------------------------

Gradient of the Kohn-Sham DFT energy:
Kohn-Sham wavefunction type      ... RKS
Hartree-Fock exchange scaling    ...    0.200
Number of operators              ...    1
Number of atoms                  ...   14
Basis set dimensions             ...  142
Integral neglect threshold       ... 2.5e-11
Integral primitive cutoff        ... 2.5e-12

Nuclear repulsion gradient       ... done
One Electron Gradient            ... done
Pre-screening matrix             ... done
RI-J gradient                    ... done
COSX-gradient                    ... done
Exchange-correlation gradient    ... done
Dispersion correction            ... done

------------------
CARTESIAN GRADIENT
------------------

   1   N   :    0.006508343   -0.005455612    0.003408524
   2   C   :   -0.005293685    0.008749648   -0.000777703
   3   C   :    0.012018768    0.013453364   -0.004758049
   4   N   :    0.002081472   -0.007210833    0.004179706
   5   N   :    0.006117391   -0.017089759    0.001289502
   6   C   :   -0.009524032    0.014743146    0.005992126
   7   N   :    0.012766407   -0.013308110    0.001259602
   8   C   :   -0.017183596   -0.005132562   -0.004654815
   9   H   :   -0.005470876    0.002931853   -0.000413217
  10   H   :   -0.005309230   -0.001023428   -0.003315428
  11   H   :   -0.003969916    0.006167825    0.000872185
  12   H   :   -0.000653705    0.006298732   -0.000648245
  13   H   :    0.003304338    0.004201914   -0.003375084
  14   H   :    0.004021111   -0.005927778   -0.000452001

Difference to translation invariance:
           :   -0.0005872085    0.0013983999   -0.0013928973

Norm of the cartesian gradient     ...    0.0472902876
RMS gradient                       ...    0.0072970498
MAX gradient                       ...    0.0171835961

-------
TIMINGS
-------

Total SCF gradient time            ...        3.826 sec

One electron gradient       ....       0.050 sec  (  1.3%)
Prescreening matrices       ....       0.132 sec  (  3.5%)
RI-J Coulomb gradient       ....       0.524 sec  ( 13.7%)
COSX gradient               ....       1.709 sec  ( 44.7%)
XC gradient                 ....       0.931 sec  ( 24.3%)
------------------------------------------------------------------------------
                         ORCA GEOMETRY RELAXATION STEP
------------------------------------------------------------------------------

Reading the OPT-File                    .... done
Getting information on internals        .... done
Copying old internal coords+grads       .... done
Making the new internal coordinates     .... (new redundants).... done
Validating the new internal coordinates .... (new redundants).... done
Calculating the B-matrix                .... done
Calculating the G,G- and P matrices     .... done
Transforming gradient to internals      .... done
Projecting the internal gradient        .... done
Number of atoms                         ....  14
Number of internal coordinates          ....  58
Current Energy                          ....  -374.888366429 Eh
Current gradient norm                   ....     0.047290288 Eh/bohr
Maximum allowed component of the step   ....  0.300
Current trust radius                    ....  0.300
Evaluating the initial hessian          ....  (Almloef) done
Projecting the Hessian                  .... done
Forming the augmented Hessian           .... done
Diagonalizing the augmented Hessian     .... done
Last element of RFO vector              ....  0.955049091
Lowest eigenvalues of augmented Hessian:
 -0.006340857  0.024182537  0.025571157  0.029018974  0.029743340
Length of the computed step             ....  0.310400475
Warning: the length of the step is outside the trust region - taking restricted step instead
The input lambda is                     ....    -0.006341
   iter:   1  x=   -0.007485  g=    5.547082 f(x)=     0.006348
   iter:   2  x=   -0.007550  g=    4.996903 f(x)=     0.000322
   iter:   3  x=   -0.007550  g=    4.968137 f(x)=     0.000001
   iter:   4  x=   -0.007550  g=    4.968054 f(x)=     0.000000
   iter:   5  x=   -0.007550  g=    4.968054 f(x)=     0.000000
The output lambda is                    ....    -0.007550 (5 iterations)
The final length of the internal step   ....  0.300000000
Converting the step to cartesian space:
 Initial RMS(Int)=    0.0393919299
Transforming coordinates:
 Iter   0:  RMS(Cart)=    0.0542828227 RMS(Int)=    1.4264395383
 Iter   1:  RMS(Cart)=    0.0020492256 RMS(Int)=    0.0017505031
 Iter   2:  RMS(Cart)=    0.0001736951 RMS(Int)=    0.0001259960
 Iter   3:  RMS(Cart)=    0.0000144374 RMS(Int)=    0.0000130194
 Iter   4:  RMS(Cart)=    0.0000012749 RMS(Int)=    0.0000009707
 Iter   5:  RMS(Cart)=    0.0000001093 RMS(Int)=    0.0000001022
 Iter   6:  RMS(Cart)=    0.0000000098 RMS(Int)=    0.0000000079
done
Storing new coordinates                 .... done

                                .--------------------.
          ----------------------|Geometry convergence|-------------------------
          Item                value                   Tolerance       Converged
          ---------------------------------------------------------------------
          RMS gradient        0.0057898384            0.0020000000      NO
          MAX gradient        0.0214442799            0.0030000000      NO
          RMS step            0.0393919299            0.0200000000      NO
          MAX step            0.1235344728            0.0300000000      NO
          ........................................................
          Max(Bonds)      0.0177      Max(Angles)    1.37
          Max(Dihed)        7.08      Max(Improp)    0.00
          ---------------------------------------------------------------------

The optimization has not yet converged - more geometry cycles are needed


    ---------------------------------------------------------------------------
                         Redundant Internal Coordinates
                            (Angstroem and degrees)

        Definition                    Value    dE/dq     Step     New-Value
    ----------------------------------------------------------------------------
     1. B(C   2,C   1)                1.3770 -0.020969  0.0174    1.3944   
     2. B(N   3,C   2)                1.3943 -0.004956  0.0047    1.3990   
     3. B(N   4,C   2)                1.3359 -0.012770  0.0098    1.3457   
     4. B(C   5,N   4)                1.3403  0.002632 -0.0027    1.3376   
     5. B(N   6,C   5)                1.3404  0.002760 -0.0028    1.3376   
     6. B(C   7,C   1)                1.3769 -0.021444  0.0177    1.3946   
     7. B(C   7,N   0)                1.3944 -0.004529  0.0043    1.3987   
     8. B(C   7,N   6)                1.3359 -0.012913  0.0099    1.3458   
     9. B(H   8,N   0)                1.0131 -0.003966  0.0048    1.0179   
    10. B(H   9,N   0)                1.0172 -0.002305  0.0028    1.0201   
    11. B(H  10,C   1)                1.0804 -0.007247  0.0101    1.0905   
    12. B(H  11,N   3)                1.0131 -0.004264  0.0052    1.0183   
    13. B(H  12,N   3)                1.0173 -0.002607  0.0032    1.0205   
    14. B(H  13,C   5)                1.0844 -0.007269  0.0103    1.0947   
    15. A(H   8,N   0,H   9)          111.83  0.004330   -0.30    111.53   
    16. A(C   7,N   0,H   8)          112.06 -0.005404    1.09    113.14   
    17. A(C   7,N   0,H   9)          107.36 -0.007056    1.37    108.73   
    18. A(C   2,C   1,C   7)          116.56  0.001010    0.09    116.65   
    19. A(C   2,C   1,H  10)          121.71 -0.000484   -0.05    121.66   
    20. A(C   7,C   1,H  10)          121.72 -0.000526   -0.04    121.68   
    21. A(N   3,C   2,N   4)          116.54 -0.002122    0.22    116.75   
    22. A(C   1,C   2,N   3)          120.67 -0.003620    0.42    121.09   
    23. A(C   1,C   2,N   4)          122.79  0.005745   -0.64    122.15   
    24. A(C   2,N   3,H  12)          107.36 -0.006591    1.27    108.63   
    25. A(H  11,N   3,H  12)          111.82  0.004159   -0.32    111.50   
    26. A(C   2,N   3,H  11)          112.05 -0.005068    1.01    113.06   
    27. A(C   2,N   4,C   5)          115.73 -0.002069    0.12    115.85   
    28. A(N   6,C   5,H  13)          116.80  0.004150   -0.46    116.34   
    29. A(N   4,C   5,N   6)          126.39 -0.008499    0.96    127.35   
    30. A(N   4,C   5,H  13)          116.80  0.004340   -0.49    116.31   
    31. A(C   5,N   6,C   7)          115.73 -0.001430    0.04    115.77   
    32. A(N   0,C   7,C   1)          120.67 -0.003626    0.42    121.08   
    33. A(C   1,C   7,N   6)          122.80  0.005245   -0.57    122.23   
    34. A(N   0,C   7,N   6)          116.53 -0.001615    0.15    116.68   
    35. D(N   3,C   2,C   1,H  10)      1.43  0.000821   -1.32      0.11   
    36. D(N   4,C   2,C   1,H  10)   -178.48 -0.001551    2.42   -176.06   
    37. D(N   3,C   2,C   1,C   7)   -180.00  0.000784   -1.21   -181.21   
    38. D(N   4,C   2,C   1,C   7)      0.10 -0.001588    2.53      2.62   
    39. D(H  12,N   3,C   2,C   1)    177.35  0.000238   -2.44    174.91   
    40. D(H  11,N   3,C   2,C   1)     54.20  0.002795   -3.56     50.64   
    41. D(H  11,N   3,C   2,N   4)   -125.89  0.005031   -7.07   -132.96   
    42. D(H  12,N   3,C   2,N   4)     -2.73  0.002474   -5.95     -8.69   
    43. D(C   5,N   4,C   2,N   3)   -179.95 -0.002291    3.42   -176.53   
    44. D(C   5,N   4,C   2,C   1)     -0.03 -0.000012   -0.17     -0.21   
    45. D(H  13,C   5,N   4,C   2)    179.72 -0.000406    0.56    180.28   
    46. D(N   6,C   5,N   4,C   2)     -0.02  0.001867   -2.54     -2.57   
    47. D(C   7,N   6,C   5,H  13)   -179.73  0.000421   -0.58   -180.32   
    48. D(C   7,N   6,C   5,N   4)      0.01 -0.001852    2.52      2.53   
    49. D(C   1,C   7,N   0,H   8)    -54.20 -0.002903    3.54    -50.66   
    50. D(C   1,C   7,N   6,C   5)      0.06 -0.000016    0.21      0.27   
    51. D(N   6,C   7,C   1,H  10)    178.47  0.001566   -2.44    176.02   
    52. D(N   6,C   7,C   1,C   2)     -0.11  0.001602   -2.55     -2.66   
    53. D(N   0,C   7,C   1,H  10)     -1.41 -0.000822    1.32     -0.09   
    54. D(N   0,C   7,C   1,C   2)   -179.99 -0.000785    1.21   -178.78   
    55. D(N   6,C   7,N   0,H   9)      2.75 -0.002277    5.81      8.56   
    56. D(N   0,C   7,N   6,C   5)    179.94  0.002277   -3.40    176.54   
    57. D(N   6,C   7,N   0,H   8)    125.91 -0.005155    7.08    132.99   
    58. D(C   1,C   7,N   0,H   9)   -177.36 -0.000025    2.28   -175.08   
    ----------------------------------------------------------------------------

         *************************************************************
         *                GEOMETRY OPTIMIZATION CYCLE   2            *
         *************************************************************
---------------------------------
CARTESIAN COORDINATES (ANGSTROEM)
---------------------------------
  N      5.038684    0.694759   -0.010924
  C      3.043375   -0.695029    0.015734
  C      1.649281   -0.719778    0.029464
  N      0.948563   -1.930107   -0.005454
  N      0.913346    0.406505    0.000488
  C      1.602248    1.552406   -0.037880
  N      2.930992    1.701475   -0.002657
  C      3.646829    0.562266    0.026994
  H      5.513705    0.125355    0.686400
  H      5.276333    1.681871    0.087373
  H      3.631784   -1.612266   -0.024338
  H      1.270686   -2.597607    0.692862
  H     -0.047420   -1.733094    0.097320
  H      1.010793    2.473344   -0.056780

----------------------------
CARTESIAN COORDINATES (A.U.)
----------------------------
  NO LB      ZA    FRAG     MASS         X           Y           Z
   0 N     7.0000    0    14.007    9.521734    1.312905   -0.020644
   1 C     6.0000    0    12.011    5.751145   -1.313415    0.029733
   2 C     6.0000    0    12.011    3.116689   -1.360183    0.055679
   3 N     7.0000    0    14.007    1.792525   -3.647373   -0.010307
   4 N     7.0000    0    14.007    1.725973    0.768183    0.000922
   5 C     6.0000    0    12.011    3.027809    2.933623   -0.071583
   6 N     7.0000    0    14.007    5.538773    3.215322   -0.005022
   7 C     6.0000    0    12.011    6.891509    1.062528    0.051012
   8 H     1.0000    0     1.008   10.419392    0.236887    1.297108
   9 H     1.0000    0     1.008    9.970824    3.178275    0.165111
  10 H     1.0000    0     1.008    6.863077   -3.046741   -0.045993
  11 H     1.0000    0     1.008    2.401248   -4.908766    1.309320
  12 H     1.0000    0     1.008   -0.089610   -3.275073    0.183908
  13 H     1.0000    0     1.008    1.910122    4.673943   -0.107300

--------------------------------
INTERNAL COORDINATES (ANGSTROEM)
--------------------------------
 N      0   0   0     0.000000000000     0.00000000     0.00000000
 C      1   0   0     2.431765092896     0.00000000     0.00000000
 C      2   1   0     1.394381602420   146.16058759     0.00000000
 N      3   2   1     1.398971323915   121.05677639   177.70389027
 N      3   2   1     1.345716527647   122.11990873     1.52476728
 C      5   3   2     1.337590544936   115.84631792   359.78781469
 N      6   5   3     1.337544012928   127.32722030   357.42135262
 C      7   6   5     1.345771091306   115.76324868     2.54638935
 H      1   2   3     1.017903239316    93.19297519   136.54818045
 H      1   2   3     1.020063095426   138.00094460     8.91020577
 H      2   1   9     1.090483324125    92.15333344   314.49321987
 H      4   3   2     1.018315137017   113.05073599    50.64339926
 H      4   3   2     1.020469525766   108.62179957   174.93282085
 H      6   5   3     1.094669709555   116.29218665   180.28341557

---------------------------
INTERNAL COORDINATES (A.U.)
---------------------------
 N      0   0   0     0.000000000000     0.00000000     0.00000000
 C      1   0   0     4.595370047603     0.00000000     0.00000000
 C      2   1   0     2.634999354752   146.16058759     0.00000000
 N      3   2   1     2.643672671408   121.05677639   177.70389027
 N      3   2   1     2.543035691145   122.11990873     1.52476728
 C      5   3   2     2.527679809251   115.84631792   359.78781469
 N      6   5   3     2.527591876500   127.32722030   357.42135262
 C      7   6   5     2.543138801517   115.76324868     2.54638935
 H      1   2   3     1.923558353138    93.19297519   136.54818045
 H      1   2   3     1.927639889676   138.00094460     8.91020577
 H      2   1   9     2.060714836205    92.15333344   314.49321987
 H      4   3   2     1.924336726989   113.05073599    50.64339926
 H      4   3   2     1.928407931710   108.62179957   174.93282085
 H      6   5   3     2.068625958159   116.29218665   180.28341557



           ************************************************************
           *        Program running with 6 parallel MPI-processes     *
           *              working on a common directory               *
           ************************************************************
 One Electron integrals                  ... done
 Pre-screening matrix                    ... done


           ************************************************************
           *        Program running with 6 parallel MPI-processes     *
           *              working on a common directory               *
           ************************************************************

Diagonalization of the overlap matrix:
Smallest eigenvalue                        ... 1.035e-03
Time for diagonalization                   ...    0.005 sec
Threshold for overlap eigenvalues          ... 1.000e-08
Number of eigenvalues below threshold      ... 0
Time for construction of square roots      ...    0.002 sec
Total time needed                          ...    0.008 sec

-------------------
DFT GRID GENERATION
-------------------

General Integration Accuracy     IntAcc      ...  4.340
Radial Grid Type                 RadialGrid  ... Gauss-Chebyshev
Angular Grid (max. acc.)         AngularGrid ... Lebedev-110
Angular grid pruning method      GridPruning ... 3 (G Style)
Weight generation scheme         WeightScheme... Becke
Basis function cutoff            BFCut       ...    1.0000e-11
Integration weight cutoff        WCut        ...    1.0000e-14
Grids for H and He will be reduced by one unit

# of grid points (after initial pruning)     ...  18196 (   0.0 sec)
# of grid points (after weights+screening)   ...  17056 (   0.0 sec)
nearest neighbour list constructed           ...    0.0 sec
Grid point re-assignment to atoms done       ...    0.0 sec
Grid point division into batches done        ...    0.0 sec
Reduced shell lists constructed in    0.1 sec

Total number of grid points                  ...    17056
Total number of batches                      ...      274
Average number of points per batch           ...       62
Average number of grid points per atom       ...     1218
Average number of shells per batch           ...    57.49 (87.11%)
Average number of basis functions per batch  ...   122.34 (86.16%)
Average number of large shells per batch     ...    46.72 (81.27%)
Average number of large basis fcns per batch ...   100.68 (82.30%)
Maximum spatial batch extension              ...  13.45,  7.83, 21.24 au
Average spatial batch extension              ...   0.36,  0.33,  0.53 au

Time for grid setup =    0.081 sec

--------------------
COSX GRID GENERATION
--------------------

General Integration Accuracy     IntAcc      ...  3.340
Radial Grid Type                 RadialGrid  ... Gauss-Chebyshev
Angular Grid (max. acc.)         AngularGrid ... Lebedev-50
Angular grid pruning method      GridPruning ... 3 (G Style)
Weight generation scheme         WeightScheme... Becke
Basis function cutoff            BFCut       ...    1.0000e-11
Integration weight cutoff        WCut        ...    1.0000e-14
Grids for H and He will be reduced by one unit

# of grid points (after initial pruning)     ...   6504 (   0.0 sec)
# of grid points (after weights+screening)   ...   6167 (   0.0 sec)
nearest neighbour list constructed           ...    0.0 sec
Grid point re-assignment to atoms done       ...    0.0 sec
Grid point division into batches done        ...    0.0 sec
Reduced shell lists constructed in    0.0 sec

Total number of grid points                  ...     6167
Total number of batches                      ...      103
Average number of points per batch           ...       59
Average number of grid points per atom       ...      440
Average number of shells per batch           ...    56.84 (86.12%)
Average number of basis functions per batch  ...   120.84 (85.10%)
Average number of large shells per batch     ...    48.79 (85.83%)
Average number of large basis fcns per batch ...   105.11 (86.98%)
Maximum spatial batch extension              ...  11.46,  6.23, 17.83 au
Average spatial batch extension              ...   0.48,  0.43,  0.75 au

Overlap Fitting                  UseSFitting ... on
Constructing numerical overlap ... done (      0.0 sec)
Inverting numerical overlap    ... done (      0.0 sec)
Obtaining analytic overlap     ... done (      0.0 sec)
Final contraction and storage  ... done (      0.0 sec)


General Integration Accuracy     IntAcc      ...  3.670
Radial Grid Type                 RadialGrid  ... Gauss-Chebyshev
Angular Grid (max. acc.)         AngularGrid ... Lebedev-50
Angular grid pruning method      GridPruning ... 3 (G Style)
Weight generation scheme         WeightScheme... Becke
Basis function cutoff            BFCut       ...    1.0000e-11
Integration weight cutoff        WCut        ...    1.0000e-14
Grids for H and He will be reduced by one unit

# of grid points (after initial pruning)     ...   8264 (   0.0 sec)
# of grid points (after weights+screening)   ...   7822 (   0.0 sec)
nearest neighbour list constructed           ...    0.0 sec
Grid point re-assignment to atoms done       ...    0.0 sec
Grid point division into batches done        ...    0.0 sec
Reduced shell lists constructed in    0.0 sec

Total number of grid points                  ...     7822
Total number of batches                      ...      130
Average number of points per batch           ...       60
Average number of grid points per atom       ...      559
Average number of shells per batch           ...    57.04 (86.43%)
Average number of basis functions per batch  ...   121.39 (85.49%)
Average number of large shells per batch     ...    47.70 (83.61%)
Average number of large basis fcns per batch ...   103.26 (85.06%)
Maximum spatial batch extension              ...  11.59,  6.83, 19.13 au
Average spatial batch extension              ...   0.45,  0.40,  0.67 au

Overlap Fitting                  UseSFitting ... on
Constructing numerical overlap ... done (      0.0 sec)
Inverting numerical overlap    ... done (      0.0 sec)
Obtaining analytic overlap     ... done (      0.0 sec)
Final contraction and storage  ... done (      0.0 sec)


General Integration Accuracy     IntAcc      ...  4.010
Radial Grid Type                 RadialGrid  ... Gauss-Chebyshev
Angular Grid (max. acc.)         AngularGrid ... Lebedev-110
Angular grid pruning method      GridPruning ... 3 (G Style)
Weight generation scheme         WeightScheme... Becke
Basis function cutoff            BFCut       ...    1.0000e-11
Integration weight cutoff        WCut        ...    1.0000e-14
Grids for H and He will be reduced by one unit

# of grid points (after initial pruning)     ...  15752 (   0.0 sec)
# of grid points (after weights+screening)   ...  14792 (   0.0 sec)
nearest neighbour list constructed           ...    0.0 sec
Grid point re-assignment to atoms done       ...    0.0 sec
Grid point division into batches done        ...    0.0 sec
Reduced shell lists constructed in    0.0 sec

Total number of grid points                  ...    14792
Total number of batches                      ...      239
Average number of points per batch           ...       61
Average number of grid points per atom       ...     1057
Average number of shells per batch           ...    57.27 (86.77%)
Average number of basis functions per batch  ...   121.71 (85.71%)
Average number of large shells per batch     ...    47.27 (82.54%)
Average number of large basis fcns per batch ...   101.95 (83.77%)
Maximum spatial batch extension              ...  12.58,  7.23, 19.79 au
Average spatial batch extension              ...   0.38,  0.34,  0.57 au

Overlap Fitting                  UseSFitting ... on
Constructing numerical overlap ... done (      0.0 sec)
Inverting numerical overlap    ... done (      0.0 sec)
Obtaining analytic overlap     ... done (      0.0 sec)
Final contraction and storage  ... done (      0.0 sec)

Time for X-Grid setup             =    0.277 sec
--------------
SCF ITERATIONS
--------------
ITER       Energy         Delta-E        Max-DP      RMS-DP      [F,P]     Damp
               ***  Starting incremental Fock matrix formation  ***
  0   -374.8649926395   0.000000000000 0.00797572  0.00028491  0.0202469 0.7000
                      *** Initiating the SOSCF procedure ***
                      *** Re-Reading the Fockian *** 
                      *** Removing any level shift *** 
ITER      Energy       Delta-E        Grad      Rot      Max-DP    RMS-DP
  1   -374.86625695  -0.0012643131  0.002013  0.002013  0.023954  0.000836
               *** Restarting incremental Fock matrix formation ***
  2   -374.86962713  -0.0033701789  0.000937  0.004073  0.004103  0.000211
  3   -374.86970166  -0.0000745316  0.001175  0.002826  0.003140  0.000125
  4   -374.86972354  -0.0000218749  0.000685  0.001384  0.001496  0.000074
  5   -374.86973946  -0.0000159196  0.000164  0.000304  0.000566  0.000023
  6   -374.86973963  -0.0000001742  0.000141  0.000230  0.000327  0.000012
  7   -374.86974054  -0.0000009061  0.000038  0.000065  0.000158  0.000004
  8   -374.86974052   0.0000000216  0.000040  0.000038  0.000066  0.000003
  9   -374.86974058  -0.0000000595  0.000003  0.000010  0.000019  0.000000
 10   -374.86974057   0.0000000034  0.000005  0.000006  0.000011  0.000000
                 **** Energy Check signals convergence ****
              ***Rediagonalizing the Fockian in SOSCF/NRSCF***

               *****************************************************
               *                     SUCCESS                       *
               *           SCF CONVERGED AFTER  11 CYCLES          *
               *****************************************************

Setting up the final grid:

General Integration Accuracy     IntAcc      ...  4.670
Radial Grid Type                 RadialGrid  ... Gauss-Chebyshev
Angular Grid (max. acc.)         AngularGrid ... Lebedev-302
Angular grid pruning method      GridPruning ... 3 (G Style)
Weight generation scheme         WeightScheme... Becke
Basis function cutoff            BFCut       ...    1.0000e-11
Integration weight cutoff        WCut        ...    1.0000e-14
Grids for H and He will be reduced by one unit

# of grid points (after initial pruning)     ...  70060 (   0.0 sec)
# of grid points (after weights+screening)   ...  64802 (   0.1 sec)
nearest neighbour list constructed           ...    0.0 sec
Grid point re-assignment to atoms done       ...    0.0 sec
Grid point division into batches done        ...    0.3 sec
Reduced shell lists constructed in    0.4 sec

Total number of grid points                  ...    64802
Total number of batches                      ...     1019
Average number of points per batch           ...       63
Average number of grid points per atom       ...     4629
Average number of shells per batch           ...    56.02 (84.88%)
Average number of basis functions per batch  ...   119.12 (83.89%)
Average number of large shells per batch     ...    44.08 (78.69%)
Average number of large basis fcns per batch ...    95.03 (79.78%)
Maximum spatial batch extension              ...   9.80,  9.67, 21.72 au
Average spatial batch extension              ...   0.23,  0.23,  0.28 au

Final grid set up in    0.5 sec
Final integration                            ... done (   0.3 sec)
Change in XC energy                          ...    -0.000084191
Integrated number of electrons               ...    57.999972218
Previous integrated no of electrons          ...    58.001883182
Old exchange energy                            =     -9.868253386 Eh
New exchange energy                            =     -9.868059036 Eh
Exchange energy change after final integration =      0.000194350 Eh
Total energy after final integration           =   -374.869630415 Eh
Final COS-X integration done in                =     1.660 sec
Total Energy       :         -374.86963042 Eh          -10200.72124 eV
  Last Energy change         ...   -2.6218e-09  Tolerance :   1.0000e-08
  Last MAX-Density change    ...    4.7503e-14  Tolerance :   1.0000e-07
             **** THE GBW FILE WAS UPDATED (g8raf/frag_38_c00001.gbw) ****
             **** DENSITY FILE WAS UPDATED (g8raf/frag_38_c00001.scfp.tmp) ****
             **** ENERGY FILE WAS UPDATED (g8raf/frag_38_c00001.en.tmp) ****
Total SCF time: 0 days 0 hours 0 min 15 sec 


-------------------------------------------------------------------------------
                          DFT DISPERSION CORRECTION                            
                                                                               
                              DFTD3 V3.1  Rev 1                                
                          USING Becke-Johnson damping                          
-------------------------------------------------------------------------------
-------------------------   ----------------
Dispersion correction           -0.022842367
-------------------------   ----------------


-------------------------   --------------------
FINAL SINGLE POINT ENERGY      -374.892472782896
-------------------------   --------------------



           ************************************************************
           *        Program running with 6 parallel MPI-processes     *
           *              working on a common directory               *
           ************************************************************
------------------------------------------------------------------------------
                         ORCA SCF GRADIENT CALCULATION
------------------------------------------------------------------------------

Gradient of the Kohn-Sham DFT energy:
Kohn-Sham wavefunction type      ... RKS
Hartree-Fock exchange scaling    ...    0.200
Number of operators              ...    1
Number of atoms                  ...   14
Basis set dimensions             ...  142
Integral neglect threshold       ... 2.5e-11
Integral primitive cutoff        ... 2.5e-12

Nuclear repulsion gradient       ... done
One Electron Gradient            ... done
Pre-screening matrix             ... done
RI-J gradient                    ... done
COSX-gradient                    ... done
Exchange-correlation gradient    ... done
Dispersion correction            ... done

------------------
CARTESIAN GRADIENT
------------------

   1   N   :    0.009472594   -0.004562314   -0.003763595
   2   C   :   -0.001601706    0.002657183   -0.003867684
   3   C   :    0.003191396    0.007728067    0.002436743
   4   N   :   -0.000016474   -0.009885582   -0.003079902
   5   N   :    0.002265435   -0.004714552    0.001960147
   6   C   :   -0.003887500    0.006204919   -0.002841804
   7   N   :    0.003334119   -0.004405985    0.002101467
   8   C   :   -0.008469292    0.000497053    0.002533771
   9   H   :   -0.001920304    0.001096975    0.002711606
  10   H   :   -0.002474804    0.001271953   -0.001471198
  11   H   :   -0.000265676    0.000360361   -0.000281925
  12   H   :   -0.000353235    0.002130835    0.002683742
  13   H   :   -0.000192213    0.002822300   -0.001528209
  14   H   :    0.000405515   -0.000322251    0.001158486

Difference to translation invariance:
           :   -0.0005121474    0.0008789614   -0.0012483551

Norm of the cartesian gradient     ...    0.0241832485
RMS gradient                       ...    0.0037315563
MAX gradient                       ...    0.0098855820

-------
TIMINGS
-------

Total SCF gradient time            ...        3.794 sec

One electron gradient       ....       0.052 sec  (  1.4%)
Prescreening matrices       ....       0.124 sec  (  3.3%)
RI-J Coulomb gradient       ....       0.553 sec  ( 14.6%)
[...]
Angular Grid (max. acc.)         AngularGrid ... Lebedev-50
Angular grid pruning method      GridPruning ... 3 (G Style)
Weight generation scheme         WeightScheme... Becke
Basis function cutoff            BFCut       ...    1.0000e-11
Integration weight cutoff        WCut        ...    1.0000e-14
Grids for H and He will be reduced by one unit

# of grid points (after initial pruning)     ...   8264 (   0.0 sec)
# of grid points (after weights+screening)   ...   7812 (   0.0 sec)
nearest neighbour list constructed           ...    0.0 sec
Grid point re-assignment to atoms done       ...    0.0 sec
Grid point division into batches done        ...    0.0 sec
Reduced shell lists constructed in    0.0 sec

Total number of grid points                  ...     7812
Total number of batches                      ...      129
Average number of points per batch           ...       60
Average number of grid points per atom       ...      558
Average number of shells per batch           ...    57.17 (86.63%)
Average number of basis functions per batch  ...   121.87 (85.82%)
Average number of large shells per batch     ...    47.61 (83.27%)
Average number of large basis fcns per batch ...   102.83 (84.37%)
Maximum spatial batch extension              ...  12.71,  6.82, 19.19 au
Average spatial batch extension              ...   0.45,  0.39,  0.74 au

Overlap Fitting                  UseSFitting ... on
Constructing numerical overlap ... done (      0.0 sec)
Inverting numerical overlap    ... done (      0.0 sec)
Obtaining analytic overlap     ... done (      0.0 sec)
Final contraction and storage  ... done (      0.0 sec)


General Integration Accuracy     IntAcc      ...  4.010
Radial Grid Type                 RadialGrid  ... Gauss-Chebyshev
Angular Grid (max. acc.)         AngularGrid ... Lebedev-110
Angular grid pruning method      GridPruning ... 3 (G Style)
Weight generation scheme         WeightScheme... Becke
Basis function cutoff            BFCut       ...    1.0000e-11
Integration weight cutoff        WCut        ...    1.0000e-14
Grids for H and He will be reduced by one unit

# of grid points (after initial pruning)     ...  15752 (   0.0 sec)
# of grid points (after weights+screening)   ...  14789 (   0.0 sec)
nearest neighbour list constructed           ...    0.0 sec
Grid point re-assignment to atoms done       ...    0.0 sec
Grid point division into batches done        ...    0.0 sec
Reduced shell lists constructed in    0.0 sec

Total number of grid points                  ...    14789
Total number of batches                      ...      238
Average number of points per batch           ...       62
Average number of grid points per atom       ...     1056
Average number of shells per batch           ...    57.34 (86.88%)
Average number of basis functions per batch  ...   121.73 (85.73%)
Average number of large shells per batch     ...    47.00 (81.97%)
Average number of large basis fcns per batch ...   101.29 (83.21%)
Maximum spatial batch extension              ...  12.25,  8.84, 20.27 au
Average spatial batch extension              ...   0.39,  0.35,  0.69 au

Overlap Fitting                  UseSFitting ... on
Constructing numerical overlap ... done (      0.0 sec)
Inverting numerical overlap    ... done (      0.0 sec)
Obtaining analytic overlap     ... done (      0.0 sec)
Final contraction and storage  ... done (      0.0 sec)

Time for X-Grid setup             =    0.279 sec
--------------
SCF ITERATIONS
--------------
ITER       Energy         Delta-E        Max-DP      RMS-DP      [F,P]     Damp
               ***  Starting incremental Fock matrix formation  ***
                      *** Initiating the SOSCF procedure ***
                      *** Re-Reading the Fockian *** 
                      *** Removing any level shift *** 
ITER      Energy       Delta-E        Grad      Rot      Max-DP    RMS-DP
  0   -374.87427975 -374.8742797474  0.001183  0.001183  0.005669  0.000146
               *** Restarting incremental Fock matrix formation ***
  1   -374.87437087  -0.0000911266  0.000332  0.000943  0.001563  0.000047
  2   -374.87437904  -0.0000081687  0.000182  0.000736  0.000855  0.000026
  3   -374.87437835   0.0000006940  0.000258  0.000431  0.000489  0.000015
  4   -374.87437980  -0.0000014467  0.000017  0.000064  0.000102  0.000003
  5   -374.87437980  -0.0000000018  0.000027  0.000041  0.000069  0.000002
  6   -374.87437981  -0.0000000128  0.000004  0.000012  0.000017  0.000001
  7   -374.87437980   0.0000000106  0.000005  0.000008  0.000014  0.000000
                  ***Gradient check signals convergence***
              ***Rediagonalizing the Fockian in SOSCF/NRSCF***

               *****************************************************
               *                     SUCCESS                       *
               *           SCF CONVERGED AFTER   8 CYCLES          *
               *****************************************************

Setting up the final grid:

General Integration Accuracy     IntAcc      ...  4.670
Radial Grid Type                 RadialGrid  ... Gauss-Chebyshev
Angular Grid (max. acc.)         AngularGrid ... Lebedev-302
Angular grid pruning method      GridPruning ... 3 (G Style)
Weight generation scheme         WeightScheme... Becke
Basis function cutoff            BFCut       ...    1.0000e-11
Integration weight cutoff        WCut        ...    1.0000e-14
Grids for H and He will be reduced by one unit

# of grid points (after initial pruning)     ...  70060 (   0.0 sec)
# of grid points (after weights+screening)   ...  64804 (   0.1 sec)
nearest neighbour list constructed           ...    0.0 sec
Grid point re-assignment to atoms done       ...    0.0 sec
Grid point division into batches done        ...    0.3 sec
Reduced shell lists constructed in    0.4 sec

Total number of grid points                  ...    64804
Total number of batches                      ...     1019
Average number of points per batch           ...       63
Average number of grid points per atom       ...     4629
Average number of shells per batch           ...    55.69 (84.38%)
Average number of basis functions per batch  ...   118.33 (83.33%)
Average number of large shells per batch     ...    43.84 (78.71%)
Average number of large basis fcns per batch ...    94.33 (79.71%)
Maximum spatial batch extension              ...  14.33,  9.45, 21.90 au
Average spatial batch extension              ...   0.23,  0.23,  0.30 au

Final grid set up in    0.5 sec
Final integration                            ... done (   0.3 sec)
Change in XC energy                          ...     0.000184322
Integrated number of electrons               ...    57.999975241
Previous integrated no of electrons          ...    57.999651493
Old exchange energy                            =     -9.871215685 Eh
New exchange energy                            =     -9.870696754 Eh
Exchange energy change after final integration =      0.000518931 Eh
Total energy after final integration           =   -374.873676555 Eh
Final COS-X integration done in                =     1.477 sec

----------------
TOTAL SCF ENERGY
----------------

Total Energy       :         -374.87367656 Eh          -10200.83134 eV

Components:
Nuclear Repulsion  :          354.08910782 Eh            9635.25447 eV
Electronic Energy  :         -728.96278438 Eh          -19836.08581 eV
One Electron Energy:        -1209.51744964 Eh          -32912.64305 eV
Two Electron Energy:          480.55466526 Eh           13076.55724 eV

Virial components:
Potential Energy   :         -747.47826120 Eh          -20339.91755 eV
Kinetic Energy     :          372.60458464 Eh           10139.08621 eV
Virial Ratio       :            2.00608981


DFT components:
N(Alpha)           :       28.999987620415 electrons
N(Beta)            :       28.999987620415 electrons
N(Total)           :       57.999975240830 electrons
E(X)               :      -39.243115244198 Eh       
E(C)               :       -2.341259462114 Eh       
E(XC)              :      -41.584374706312 Eh       

---------------
SCF CONVERGENCE
---------------

  Last Energy change         ...   -8.9994e-09  Tolerance :   1.0000e-08
  Last MAX-Density change    ...    3.9286e-14  Tolerance :   1.0000e-07
  Last RMS-Density change    ...    3.4008e-16  Tolerance :   5.0000e-09
  Last Orbital Gradient      ...    1.0297e-06  Tolerance :   1.0000e-05
  Last Orbital Rotation      ...    3.3137e-06  Tolerance :   1.0000e-05

             **** THE GBW FILE WAS UPDATED (g8raf/frag_38_c00001.gbw) ****
             **** DENSITY FILE WAS UPDATED (g8raf/frag_38_c00001.scfp.tmp) ****
             **** ENERGY FILE WAS UPDATED (g8raf/frag_38_c00001.en.tmp) ****
----------------
ORBITAL ENERGIES
----------------

  NO   OCC          E(Eh)            E(eV) 
   0   2.0000     -14.340161      -390.2156 
   1   2.0000     -14.340022      -390.2118 
   2   2.0000     -14.301955      -389.1760 
   3   2.0000     -14.301809      -389.1720 
   4   2.0000     -10.257284      -279.1149 
   5   2.0000     -10.257104      -279.1100 
   6   2.0000     -10.235547      -278.5234 
   7   2.0000     -10.177426      -276.9418 
   8   2.0000      -0.978583       -26.6286 
   9   2.0000      -0.935458       -25.4551 
  10   2.0000      -0.896454       -24.3937 
  11   2.0000      -0.835538       -22.7361 
  12   2.0000      -0.755587       -20.5606 
  13   2.0000      -0.645084       -17.5536 
  14   2.0000      -0.622727       -16.9453 
  15   2.0000      -0.550346       -14.9757 
  16   2.0000      -0.535435       -14.5699 
  17   2.0000      -0.494866       -13.4660 
  18   2.0000      -0.466114       -12.6836 
  19   2.0000      -0.455021       -12.3818 
  20   2.0000      -0.426731       -11.6120 
  21   2.0000      -0.424112       -11.5407 
  22   2.0000      -0.404332       -11.0024 
  23   2.0000      -0.358224        -9.7478 
  24   2.0000      -0.312912        -8.5148 
  25   2.0000      -0.280838        -7.6420 
  26   2.0000      -0.243267        -6.6196 
  27   2.0000      -0.232855        -6.3363 
  28   2.0000      -0.223454        -6.0805 
  29   0.0000      -0.000843        -0.0229 
  30   0.0000       0.012314         0.3351 
  31   0.0000       0.056126         1.5273 
  32   0.0000       0.064848         1.7646 
  33   0.0000       0.094288         2.5657 
  34   0.0000       0.119550         3.2531 
  35   0.0000       0.119744         3.2584 
  36   0.0000       0.146121         3.9762 
  37   0.0000       0.162354         4.4179 
  38   0.0000       0.227233         6.1833 
  39   0.0000       0.258394         7.0313 
  40   0.0000       0.290992         7.9183 
  41   0.0000       0.325639         8.8611 
  42   0.0000       0.338091         9.1999 
  43   0.0000       0.357403         9.7254 
  44   0.0000       0.414941        11.2911 
  45   0.0000       0.415711        11.3121 
  46   0.0000       0.459987        12.5169 
  47   0.0000       0.468046        12.7362 
  48   0.0000       0.477946        13.0056 
  49   0.0000       0.519525        14.1370 
  50   0.0000       0.527349        14.3499 
  51   0.0000       0.534613        14.5476 
  52   0.0000       0.538153        14.6439 
  53   0.0000       0.554705        15.0943 
  54   0.0000       0.566452        15.4139 
  55   0.0000       0.573603        15.6085 
  56   0.0000       0.610145        16.6029 
  57   0.0000       0.628380        17.0991 
  58   0.0000       0.641298        17.4506 
  59   0.0000       0.673190        18.3184 
  60   0.0000       0.685955        18.6658 
  61   0.0000       0.692933        18.8557 
  62   0.0000       0.730035        19.8653 
  63   0.0000       0.747490        20.3402 
  64   0.0000       0.752948        20.4888 
  65   0.0000       0.787499        21.4289 
  66   0.0000       0.822260        22.3748 
  67   0.0000       0.823895        22.4193 
  68   0.0000       0.868054        23.6210 
  69   0.0000       0.878585        23.9075 
  70   0.0000       0.879913        23.9437 
  71   0.0000       0.910296        24.7704 
  72   0.0000       0.933635        25.4055 
  73   0.0000       0.937564        25.5124 
  74   0.0000       0.951312        25.8865 
  75   0.0000       0.987652        26.8754 
  76   0.0000       0.989415        26.9234 
  77   0.0000       1.024235        27.8709 
  78   0.0000       1.033435        28.1212 
  79   0.0000       1.093426        29.7536 
  80   0.0000       1.105360        30.0784 
  81   0.0000       1.119154        30.4537 
  82   0.0000       1.181268        32.1439 
  83   0.0000       1.190090        32.3840 
  84   0.0000       1.265967        34.4487 
  85   0.0000       1.275301        34.7027 
  86   0.0000       1.293858        35.2077 
  87   0.0000       1.337566        36.3970 
  88   0.0000       1.424041        38.7501 
  89   0.0000       1.446853        39.3709 
  90   0.0000       1.448889        39.4263 
  91   0.0000       1.504765        40.9467 
  92   0.0000       1.521944        41.4142 
  93   0.0000       1.523466        41.4556 
  94   0.0000       1.545681        42.0601 
  95   0.0000       1.574882        42.8547 
  96   0.0000       1.597218        43.4625 
  97   0.0000       1.628197        44.3055 
  98   0.0000       1.660496        45.1844 
  99   0.0000       1.662366        45.2353 
 100   0.0000       1.689694        45.9789 
 101   0.0000       1.702517        46.3278 
 102   0.0000       1.729486        47.0617 
 103   0.0000       1.761800        47.9410 
 104   0.0000       1.764838        48.0237 
 105   0.0000       1.799208        48.9589 
 106   0.0000       1.824110        49.6366 
 107   0.0000       1.834708        49.9250 
 108   0.0000       1.880786        51.1788 
 109   0.0000       1.900682        51.7202 
 110   0.0000       1.938580        52.7514 
 111   0.0000       1.999480        54.4086 
 112   0.0000       2.016517        54.8722 
 113   0.0000       2.043407        55.6039 
 114   0.0000       2.059039        56.0293 
 115   0.0000       2.096907        57.0598 
 116   0.0000       2.102659        57.2163 
 117   0.0000       2.160444        58.7887 
 118   0.0000       2.197813        59.8055 
 119   0.0000       2.208671        60.1010 
 120   0.0000       2.233233        60.7694 
 121   0.0000       2.300318        62.5948 
 122   0.0000       2.307280        62.7843 
 123   0.0000       2.370740        64.5111 
 124   0.0000       2.471454        67.2517 
 125   0.0000       2.487804        67.6966 
 126   0.0000       2.499144        68.0052 
 127   0.0000       2.538719        69.0821 
 128   0.0000       2.549377        69.3721 
 129   0.0000       2.595455        70.6259 
 130   0.0000       2.602203        70.8095 
 131   0.0000       2.648504        72.0695 
 132   0.0000       2.676970        72.8441 
 133   0.0000       2.747624        74.7666 
 134   0.0000       2.760202        75.1089 
 135   0.0000       2.803103        76.2763 
 136   0.0000       2.841116        77.3107 
 137   0.0000       2.896087        78.8065 
 138   0.0000       2.969592        80.8067 
 139   0.0000       3.223670        87.7205 
 140   0.0000       3.229014        87.8659 
 141   0.0000       3.382146        92.0329 
-------
TIMINGS
-------

Total SCF time: 0 days 0 hours 0 min 11 sec 

Total time                  ....      11.490 sec
Sum of individual times     ....      11.437 sec  ( 99.5%)

Fock matrix formation       ....      10.450 sec  ( 91.0%)
  Split-RI-J                ....       1.937 sec  ( 18.5% of F)
  Chain of spheres X        ....       7.646 sec  ( 73.2% of F)
  COS-X 1 center corr.      ....       0.000 sec  (  0.0% of F)
  XC integration            ....       0.840 sec  (  8.0% of F)
    Basis function eval.    ....       0.271 sec  ( 32.2% of XC)
    Density eval.           ....       0.116 sec  ( 13.8% of XC)
    XC-Functional eval.     ....       0.032 sec  (  3.9% of XC)
    XC-Potential eval.      ....       0.237 sec  ( 28.2% of XC)
Diagonalization             ....       0.005 sec  (  0.0%)
Density matrix formation    ....       0.023 sec  (  0.2%)
Population analysis         ....       0.000 sec  (  0.0%)
Initial guess               ....       0.006 sec  (  0.1%)
Orbital Transformation      ....       0.000 sec  (  0.0%)
Orbital Orthonormalization  ....       0.004 sec  (  0.0%)
DIIS solution               ....       0.001 sec  (  0.0%)
SOSCF solution              ....       0.089 sec  (  0.8%)
Grid generation             ....       0.863 sec  (  7.5%)


-------------------------------------------------------------------------------
                          DFT DISPERSION CORRECTION                            
                                                                               
                              DFTD3 V3.1  Rev 1                                
                          USING Becke-Johnson damping                          
-------------------------------------------------------------------------------
The B3LYP functional is recognized
Active option DFTDOPT                   ...         4   

molecular C6(AA) [au] = 2220.020464 


            DFT-D V3
 parameters
 s6 scaling factor         :     1.0000 
 a1 scaling factor         :     0.3981 
 s8 scaling factor         :     1.9889 
 a2 scaling factor         :     4.4211 
 ad hoc parameters k1-k3   :    16.0000     1.3333    -4.0000 

 Edisp/kcal,au: -14.317484892224  -0.022816362074 
 E6   /kcal   :  -6.752240563 
 E8   /kcal   :  -7.565244329 
 % E8         :  52.839198964 

-------------------------   ----------------
Dispersion correction           -0.022816362
-------------------------   ----------------


-------------------------   --------------------
FINAL SINGLE POINT ENERGY      -374.896492917462
-------------------------   --------------------

                                *** OPTIMIZATION RUN DONE ***

                            ***************************************
                            *     ORCA property calculations      *
                            ***************************************

                                    ---------------------
                                    Active property flags
                                    ---------------------
   (+) Dipole Moment


------------------------------------------------------------------------------
                       ORCA ELECTRIC PROPERTIES CALCULATION
------------------------------------------------------------------------------

Dipole Moment Calculation                       ... on
Quadrupole Moment Calculation                   ... off
Polarizability Calculation                      ... off
GBWName                                         ... g8raf/frag_38_c00001.gbw
Electron density file                           ... g8raf/frag_38_c00001.scfp.tmp
The origin for moment calculation is the CENTER OF MASS  = ( 4.670451,  0.371866  0.033391)

-------------
DIPOLE MOMENT
-------------
                                X             Y             Z
Electronic contribution:     -1.15635       1.81365      -0.48285
Nuclear contribution   :      1.84676      -2.87357       1.26030
                        -----------------------------------------
Total Dipole Moment    :      0.69040      -1.05992       0.77745
                        -----------------------------------------
Magnitude (a.u.)       :      1.48477
Magnitude (Debye)      :      3.77397


Timings for individual modules:

Sum of individual times         ...      138.247 sec (=   2.304 min)
GTO integral calculation        ...        6.626 sec (=   0.110 min)   4.8 %
SCF iterations                  ...      106.509 sec (=   1.775 min)  77.0 %
SCF Gradient evaluation         ...       24.769 sec (=   0.413 min)  17.9 %
Geometry relaxation             ...        0.344 sec (=   0.006 min)   0.2 %
                             ****ORCA TERMINATED NORMALLY****
TOTAL RUN TIME: 0 days 0 hours 2 minutes 19 seconds 968 msec
