
                                 *****************
                                 * O   R   C   A *
                                 *****************

           --- An Ab Initio, DFT and Semiempirical electronic structure package ---

                  #######################################################
                  #                        -***-                        #
                  #  Department of molecular theory and spectroscopy    #
                  #              Directorship: Frank Neese              #
                  # Max Planck Institute for Chemical Energy Conversion #
                  #                  D-45470 Muelheim/Ruhr              #
                  #                       Germany                       #
                  #                                                     #
                  #                  All rights reserved                #
                  #                        -***-                        #
                  #######################################################


                         Program Version 4.0.1.2 - RELEASE -


 With contributions from (in alphabetic order):
   Daniel Aravena         : Magnetic Properties
   Michael Atanasov       : Ab Initio Ligand Field Theory
   Ute Becker             : Parallelization
   Martin Brehm           : Molecular dynamics
   Dmytro Bykov           : SCF Hessian
   Vijay G. Chilkuri      : MRCI spin determinant printing
   Dipayan Datta          : RHF DLPNO-CCSD density
   Achintya Kumar Dutta   : EOM-CC, STEOM-CC
   Dmitry Ganyushin       : Spin-Orbit,Spin-Spin,Magnetic field MRCI
   Yang Guo               : DLPNO-NEVPT2, CIM, IAO-localization
   Andreas Hansen         : Spin unrestricted coupled pair/coupled cluster methods
   Lee Huntington         : MR-EOM, pCC
   Robert Izsak           : Overlap fitted RIJCOSX, COSX-SCS-MP3, EOM
   Christian Kollmar      : KDIIS, OOCD, Brueckner-CCSD(T), CCSD density
   Simone Kossmann        : Meta GGA functionals, TD-DFT gradient, OOMP2, MP2 Hessian
   Martin Krupicka        : AUTO-CI
   Dagmar Lenk            : GEPOL surface
   Dimitrios Liakos       : Extrapolation schemes; parallel MDCI
   Dimitrios Manganas     : ROCIS; embedding schemes
   Dimitrios Pantazis     : SARC Basis sets
   Taras Petrenko         : DFT Hessian,TD-DFT gradient, ASA, ECA, R-Raman, ABS, FL, XAS/XES, NRVS
   Peter Pinski           : DLPNO-MP2
   Christoph Reimann      : Effective Core Potentials
   Marius Retegan         : Local ZFS, SOC
   Christoph Riplinger    : Optimizer, TS searches, QM/MM, DLPNO-CCSD(T), (RO)-DLPNO pert. Triples
   Tobias Risthaus        : Range-separated hybrids, TD-DFT gradient, RPA, STAB
   Michael Roemelt        : Restricted open shell CIS
   Masaaki Saitow         : Open-shell DLPNO
   Barbara Sandhoefer     : DKH picture change effects
   Kantharuban Sivalingam : CASSCF convergence, NEVPT2, FIC-MRCI
   Georgi Stoychev        : AutoAux
   Boris Wezisla          : Elementary symmetry handling
   Frank Wennmohs         : Technical directorship


 We gratefully acknowledge several colleagues who have allowed us to
 interface, adapt or use parts of their codes:
   Stefan Grimme, W. Hujo, H. Kruse,             : VdW corrections, initial TS optimization,
                  C. Bannwarth                     DFT functionals, gCP, sTDA/sTD-DF
   Ed Valeev                                     : LibInt (2-el integral package), F12 methods
   Garnet Chan, S. Sharma, J. Yang, R. Olivares  : DMRG
   Ulf Ekstrom                                   : XCFun DFT Library
   Mihaly Kallay                                 : mrcc  (arbitrary order and MRCC methods)
   Andreas Klamt, Michael Diedenhofen            : otool_cosmo (COSMO solvation model)
   Jiri Pittner, Ondrej Demel                    : Mk-CCSD
   Frank Weinhold                                : gennbo (NPA and NBO analysis)
   Christopher J. Cramer and Donald G. Truhlar   : smd solvation model


 Your calculation uses the libint2 library for the computation of 2-el integrals
 For citations please refer to: http://libint.valeyev.net

 This ORCA versions uses:
   CBLAS   interface :  Fast vector & matrix operations
   LAPACKE interface :  Fast linear algebra routines
   SCALAPACK package :  Parallel linear algebra routines


Your calculation utilizes the atom-pairwise dispersion correction
with the Becke-Johnson damping scheme (D3BJ)
Cite in your paper:
S.Grimme, S.Ehrlich, L.Goerigk, J Comput Chem, (2011), 32, 1456–1465 
S.Grimme, J.Antony, S.Ehrlich and H.Krieg, J.Chem.Phys., 132, (2010), 154104 
   

Your calculation utilizes the basis: cc-pVDZ 
       H, B-Ne : Obtained from the ccRepo (grant-hill.group.shef.ac.uk/ccrepo) Feb. 2017
                 T. H. Dunning, Jr., J. Chem. Phys. 90, 1007 (1989)
            He : Obtained from the ccRepo (grant-hill.group.shef.ac.uk/ccrepo) Feb. 2017
                 D. E. Woon, T. H. Dunning, Jr., J. Chem. Phys. 100, 2975 (1994)
  Li-Be, Na-Mg : Obtained from the ccRepo (grant-hill.group.shef.ac.uk/ccrepo) Feb. 2017
                 B. P. Prascher, D. E. Woon, K. A. Peterson, T. H. Dunning, Jr., A. K. Wilson, Theor. Chem. Acc. 128, 69 (2011)
         Al-Ar : Obtained from the ccRepo (grant-hill.group.shef.ac.uk/ccrepo) Feb. 2017
                 D. E. Woon, T. H. Dunning, Jr., J. Chem. Phys. 98, 1358 (1993)
            Ca : Obtained from the Peterson Research Group Website (tyr0.chem.wsu.edu/~kipeters) Feb. 2017
                 J. Koput, K. A. Peterson, J. Phys. Chem. 106, 9595 (2002)
         Sc-Zn : Obtained from the ccRepo (grant-hill.group.shef.ac.uk/ccrepo) Feb. 2017
                 N. B. Balabanov, K. A. Peterson, J. Chem. Phys. 123, 064107 (2005)
                 N. B. Balabanov, K. A. Peterson, J. Chem. Phys. 125, 074110 (2006)
         Ga-Kr : Obtained from the ccRepo (grant-hill.group.shef.ac.uk/ccrepo) Feb. 2017
                 A. K. Wilson, D. E. Woon, K. A. Peterson, T. H. Dunning, Jr., J. Chem. Phys. 110, 7667 (1999)

Your calculation utilizes the auxiliary basis: def2/J
   F. Weigend, Phys. Chem. Chem. Phys. 8, 1057 (2006).

================================================================================
                                        WARNINGS
                       Please study these warnings very carefully!
================================================================================

Warning: TCutStore was < 0. Adjusted to Thresh (uncritical)

WARNING: Geometry Optimization
  ===> : Switching off AutoStart
         For restart on a previous wavefunction, please use MOREAD

INFO   : the flag for use of LIBINT has been found!

================================================================================
                                       INPUT FILE
================================================================================
NAME = AT-v/e/frag_12_c00001.com
|  1> %pal nprocs 6 end
|  2> %maxcore 1000
|  3> ! b3lyp TIGHTSCF nopop D3BJ
|  4> ! cc-pvdz def2/J RIJCOSX
|  5> ! Opt
|  6> 
|  7> %geom
|  8> maxiter 60
|  9> TolE 1e-4
| 10> TolRMSG 2e-3
| 11> TolMaxG 3e-3
| 12> TolRMSD 2e-2
| 13> TolMaxD 3e-2
| 14> end
| 15> 
| 16> *xyz 0 1
| 17> N 3.7635 -1.7735 -0.1844
| 18> C 3.158 -0.632 -0.1297
| 19> C 1.6425 -0.5708 -0.2134
| 20> N 0.9585 -1.7403 -0.3461
| 21> N 1.0356 0.574 -0.1582
| 22> N -1.783 0.5055 0.1063
| 23> C -2.3606 -0.6903 0.3746
| 24> O -1.6932 -1.6777 0.6716
| 25> C -3.8383 -0.7742 0.2986
| 26> C -4.6822 0.223 -0.0118
| 27> H 4.7773 -1.6249 -0.1266
| 28> H 3.6836 0.3314 -0.035
| 29> H 1.4941 -2.564 -0.0796
| 30> H 0.01 -1.7362 0.0409
| 31> H 1.7135 1.3388 -0.0642
| 32> H -2.272 1.2893 -0.2991
| 33> H -0.7593 0.53 0.0475
| 34> H -4.2281 -1.7647 0.5123
| 35> H -4.3631 1.2345 -0.2308
| 36> H -5.7514 0.0322 -0.0428
| 37> *
| 38> 
| 39> 
| 40>                          ****END OF INPUT****
================================================================================

                       *****************************
                       * Geometry Optimization Run *
                       *****************************

Geometry optimization settings:
Update method            Update   .... BFGS
Choice of coordinates    CoordSys .... Redundant Internals
Initial Hessian          InHess   .... Almoef's Model

Convergence Tolerances:
Energy Change            TolE     ....  1.0000e-04 Eh
Max. Gradient            TolMAXG  ....  3.0000e-03 Eh/bohr
RMS Gradient             TolRMSG  ....  2.0000e-03 Eh/bohr
Max. Displacement        TolMAXD  ....  3.0000e-02 bohr
RMS Displacement         TolRMSD  ....  2.0000e-02 bohr

------------------------------------------------------------------------------
                        ORCA OPTIMIZATION COORDINATE SETUP
------------------------------------------------------------------------------

The optimization will be done in new redundant internal coordinates
Making redundant internal coordinates   ...  (new redundants) done
Evaluating the initial hessian          ...  (Almloef) done
Evaluating the coordinates              ...  done
Calculating the B-matrix                .... done
Calculating the G-matrix                .... done
Diagonalizing the G-matrix              .... done
Small eigenvalue found = 1.710e-02
The first mode is                       ....   30
The number of degrees of freedom        ....   54

    -----------------------------------------------------------------
                    Redundant Internal Coordinates


    -----------------------------------------------------------------
         Definition                    Initial Value    Approx d2E/dq
    -----------------------------------------------------------------
      1. B(C   1,N   0)                  1.2933         0.798256   
      2. B(C   2,C   1)                  1.5190         0.388919   
      3. B(N   3,C   2)                  1.3613         0.621771   
      4. B(N   4,C   2)                  1.2969         0.787799   
      5. B(C   6,N   5)                  1.3548         0.636794   
      6. B(O   7,C   6)                  1.2282         1.013776   
      7. B(C   8,C   6)                  1.4820         0.445565   
      8. B(C   9,C   8)                  1.3427         0.743285   
      9. B(H  10,N   0)                  1.0263         0.407615   
     10. B(H  11,C   1)                  1.1015         0.345169   
     11. B(H  12,N   3)                  1.0180         0.420140   
     12. B(H  13,N   3)                  1.0244         0.410381   
     13. B(H  13,O   7)                  1.8172         0.022305   
     14. B(H  14,N   4)                  1.0263         0.407549   
     15. B(H  15,N   5)                  1.0089         0.434513   
     16. B(H  16,N   5)                  1.0257         0.408487   
     17. B(H  16,N   4)                  1.8072         0.023139   
     18. B(H  17,C   8)                  1.0857         0.365860   
     19. B(H  18,C   9)                  1.0830         0.369462   
     20. B(H  19,C   9)                  1.0865         0.364716   
     21. A(C   1,N   0,H  10)          109.4091         0.370708   
     22. A(N   0,C   1,C   2)          120.0209         0.415072   
     23. A(N   0,C   1,H  11)          123.5170         0.363501   
     24. A(C   2,C   1,H  11)          116.4581         0.324207   
     25. A(C   1,C   2,N   3)          118.1668         0.397144   
     26. A(N   3,C   2,N   4)          121.8272         0.447550   
     27. A(C   1,C   2,N   4)          120.0060         0.414100   
     28. A(C   2,N   3,H  13)          115.1477         0.355627   
     29. A(H  12,N   3,H  13)          113.0460         0.299296   
     30. A(C   2,N   3,H  12)          113.9061         0.357049   
     31. A(C   2,N   4,H  14)          110.6464         0.369858   
     32. A(C   2,N   4,H  16)          116.6241         0.235726   
     33. A(H  14,N   4,H  16)          131.5867         0.197938   
     34. A(H  15,N   5,H  16)          116.2426         0.300681   
     35. A(C   6,N   5,H  16)          117.2544         0.356791   
     36. A(C   6,N   5,H  15)          123.9629         0.360561   
     37. A(O   7,C   6,C   8)          120.5758         0.443955   
     38. A(N   5,C   6,C   8)          117.7034         0.408496   
     39. A(N   5,C   6,O   7)          121.7208         0.470669   
     40. A(C   6,O   7,H  13)          116.8240         0.243061   
     41. A(C   9,C   8,H  17)          119.8286         0.364957   
     42. A(C   6,C   8,H  17)          113.5496         0.334776   
     43. A(C   6,C   8,C   9)          126.6176         0.422622   
     44. A(H  18,C   9,H  19)          116.6270         0.292601   
     45. A(C   8,C   9,H  19)          119.6467         0.364761   
     46. A(C   8,C   9,H  18)          123.7239         0.365569   
     47. L(N   3,H  13,O   7,C   2, 2) 176.3357         0.197207   
     48. L(N   3,H  13,O   7,C   2, 1) 178.9860         0.197207   
     49. L(N   4,H  16,N   5,C   6, 2) 185.4636         0.197994   
     50. L(N   4,H  16,N   5,C   6, 1) 180.5386         0.197994   
     51. D(H  11,C   1,N   0,H  10)     -0.0281         0.049086   
     52. D(C   2,C   1,N   0,H  10)    179.2255         0.049086   
     53. D(N   3,C   2,C   1,H  11)    179.2829         0.010436   
     54. D(N   3,C   2,C   1,N   0)     -0.0220         0.010436   
     55. D(N   4,C   2,C   1,N   0)    179.9837         0.010436   
     56. D(N   4,C   2,C   1,H  11)     -0.7114         0.010436   
     57. D(H  12,N   3,C   2,C   1)     18.7442         0.031319   
     58. D(H  13,N   3,C   2,C   1)    151.6764         0.031319   
     59. D(H  13,N   3,C   2,N   4)    -28.3294         0.031319   
     60. D(H  12,N   3,C   2,N   4)   -161.2616         0.031319   
     61. D(H  16,N   4,C   2,N   3)     11.1607         0.052715   
     62. D(H  14,N   4,C   2,N   3)   -179.6275         0.052715   
     63. D(H  14,N   4,C   2,C   1)      0.3666         0.052715   
     64. D(H  16,N   4,C   2,C   1)   -168.8452         0.052715   
     65. D(C   6,N   5,N   4,C   2)     10.1456         0.001501   
     66. D(H  15,N   5,N   4,H  14)     41.3329         0.001501   
     67. D(H  15,N   5,N   4,C   2)   -150.5946         0.001501   
     68. D(C   6,N   5,N   4,H  14)   -157.9268         0.001501   
     69. D(C   8,C   6,N   5,H  16)   -172.6865         0.032978   
     70. D(C   8,C   6,N   5,H  15)    -11.4820         0.032978   
     71. D(O   7,C   6,N   5,H  16)      7.3111         0.032978   
     72. D(O   7,C   6,N   5,H  15)    168.5156         0.032978   
     73. D(H  13,O   7,C   6,C   8)    153.1331         0.084546   
     74. D(H  13,O   7,C   6,N   5)    -26.8645         0.084546   
     75. D(C   6,O   7,N   3,H  12)    179.4747         0.001500   
     76. D(C   6,O   7,N   3,C   2)     45.2223         0.001500   
     77. D(H  17,C   8,C   6,O   7)     -0.7983         0.013538   
     78. D(H  17,C   8,C   6,N   5)    179.1994         0.013538   
     79. D(C   9,C   8,C   6,O   7)    179.9612         0.013538   
     80. D(C   9,C   8,C   6,N   5)     -0.0412         0.013538   
     81. D(H  18,C   9,C   8,C   6)     -1.1298         0.039332   
     82. D(H  19,C   9,C   8,H  17)      0.2601         0.039332   
     83. D(H  19,C   9,C   8,C   6)    179.4576         0.039332   
     84. D(H  18,C   9,C   8,H  17)    179.6727         0.039332   
    -----------------------------------------------------------------

Number of atoms                         .... 20
Number of degrees of freedom            .... 84

         *************************************************************
         *                GEOMETRY OPTIMIZATION CYCLE   1            *
         *************************************************************
---------------------------------
CARTESIAN COORDINATES (ANGSTROEM)
---------------------------------
  N      3.763500   -1.773500   -0.184400
  C      3.158000   -0.632000   -0.129700
  C      1.642500   -0.570800   -0.213400
  N      0.958500   -1.740300   -0.346100
  N      1.035600    0.574000   -0.158200
  N     -1.783000    0.505500    0.106300
  C     -2.360600   -0.690300    0.374600
  O     -1.693200   -1.677700    0.671600
  C     -3.838300   -0.774200    0.298600
  C     -4.682200    0.223000   -0.011800
  H      4.777300   -1.624900   -0.126600
  H      3.683600    0.331400   -0.035000
  H      1.494100   -2.564000   -0.079600
  H      0.010000   -1.736200    0.040900
  H      1.713500    1.338800   -0.064200
  H     -2.272000    1.289300   -0.299100
  H     -0.759300    0.530000    0.047500
  H     -4.228100   -1.764700    0.512300
  H     -4.363100    1.234500   -0.230800
  H     -5.751400    0.032200   -0.042800

----------------------------
CARTESIAN COORDINATES (A.U.)
----------------------------
  NO LB      ZA    FRAG     MASS         X           Y           Z
   0 N     7.0000    0    14.007    7.111984   -3.351429   -0.348465
   1 C     6.0000    0    12.011    5.967755   -1.194307   -0.245097
   2 C     6.0000    0    12.011    3.103875   -1.078656   -0.403268
   3 N     7.0000    0    14.007    1.811302   -3.288690   -0.654034
   4 N     7.0000    0    14.007    1.957000    1.084703   -0.298955
   5 N     7.0000    0    14.007   -3.369382    0.955257    0.200878
   6 C     6.0000    0    12.011   -4.460888   -1.304478    0.707891
   7 O     8.0000    0    15.999   -3.199684   -3.170394    1.269140
   8 C     6.0000    0    12.011   -7.253336   -1.463026    0.564272
   9 C     6.0000    0    12.011   -8.848076    0.421409   -0.022299
  10 H     1.0000    0     1.008    9.027789   -3.070616   -0.239239
  11 H     1.0000    0     1.008    6.960995    0.626255   -0.066140
  12 H     1.0000    0     1.008    2.823440   -4.845258   -0.150422
  13 H     1.0000    0     1.008    0.018897   -3.280943    0.077290
  14 H     1.0000    0     1.008    3.238046    2.529965   -0.121320
  15 H     1.0000    0     1.008   -4.293458    2.436424   -0.565217
  16 H     1.0000    0     1.008   -1.434869    1.001555    0.089762
  17 H     1.0000    0     1.008   -7.989951   -3.334800    0.968107
  18 H     1.0000    0     1.008   -8.245064    2.332867   -0.436149
  19 H     1.0000    0     1.008  -10.868571    0.060849   -0.080880

--------------------------------
INTERNAL COORDINATES (ANGSTROEM)
--------------------------------
 N      0   0   0     0.000000000000     0.00000000     0.00000000
 C      1   0   0     1.293307616153     0.00000000     0.00000000
 C      2   1   0     1.519042915786   120.02094105     0.00000000
 N      3   2   1     1.361321247906   118.16684699     0.00000000
 N      3   2   1     1.296896946561   120.00595811   179.98368200
 N      5   3   2     2.831811868751   116.64125694   189.83883412
 C      6   5   3     1.354822604624   117.65761704    10.14562186
 O      7   6   5     1.228246929571   121.72076919     9.60271138
 C      7   6   5     1.482029857999   117.70340932   189.60508665
 C      9   7   6     1.342729760600   126.61755250   359.95881291
 H      1   2   3     1.026261779470   109.40911292   179.22546877
 H      2   1   3     1.101527580227   123.51703796   180.74640370
 H      4   3   2     1.018023231562   113.90606132    18.74418410
 H      4   3   2     1.024420841256   115.14765242   151.67644261
 H      5   3   2     1.026305729303   110.64638994     0.36658097
 H      6   5   3     1.008866988260   115.22125284   209.40539698
 H      6   5   3     1.025679959832     2.07307885    89.45901216
 H      9   7   6     1.085680422592   113.54962035   179.19938428
 H     10   9   7     1.083013416353   123.72393285   358.87015620
 H     10   9   7     1.086533147216   119.64665316   179.45761329

---------------------------
INTERNAL COORDINATES (A.U.)
---------------------------
 N      0   0   0     0.000000000000     0.00000000     0.00000000
 C      1   0   0     2.443997201444     0.00000000     0.00000000
 C      2   1   0     2.870575096509   120.02094105     0.00000000
 N      3   2   1     2.572524338830   118.16684699     0.00000000
 N      3   2   1     2.450780052920   120.00595811   179.98368200
 N      5   3   2     5.351348894727   116.64125694   189.83883412
 C      6   5   3     2.560243682785   117.65761704    10.14562186
 O      7   6   5     2.321050321718   121.72076919     9.60271138
 C      7   6   5     2.800630553912   117.70340932   189.60508665
 C      9   7   6     2.537391519399   126.61755250   359.95881291
 H      1   2   3     1.939353704908   109.40911292   179.22546877
 H      2   1   3     2.081585455589   123.51703796   180.74640370
 H      4   3   2     1.923785105622   113.90606132    18.74418410
 H      4   3   2     1.935874835855   115.14765242   151.67644261
 H      5   3   2     1.939436758057   110.64638994     0.36658097
 H      6   5   3     1.906482313365   115.22125284   209.40539698
 H      6   5   3     1.938254225133     2.07307885    89.45901216
 H      9   7   6     2.051638667659   113.54962035   179.19938428
 H     10   9   7     2.046598756269   123.72393285   358.87015620
 H     10   9   7     2.053250083667   119.64665316   179.45761329

---------------------
BASIS SET INFORMATION
---------------------
There are 4 groups of distinct atoms

 Group   1 Type N   : 17s4p1d contracted to 3s2p1d pattern {881/31/1}
 Group   2 Type C   : 17s4p1d contracted to 3s2p1d pattern {881/31/1}
 Group   3 Type O   : 17s4p1d contracted to 3s2p1d pattern {881/31/1}
 Group   4 Type H   : 4s1p contracted to 2s1p pattern {31/1}

Atom   0N    basis set group =>   1
Atom   1C    basis set group =>   2
Atom   2C    basis set group =>   2
Atom   3N    basis set group =>   1
Atom   4N    basis set group =>   1
Atom   5N    basis set group =>   1
Atom   6C    basis set group =>   2
Atom   7O    basis set group =>   3
Atom   8C    basis set group =>   2
Atom   9C    basis set group =>   2
Atom  10H    basis set group =>   4
Atom  11H    basis set group =>   4
Atom  12H    basis set group =>   4
Atom  13H    basis set group =>   4
Atom  14H    basis set group =>   4
Atom  15H    basis set group =>   4
Atom  16H    basis set group =>   4
Atom  17H    basis set group =>   4
Atom  18H    basis set group =>   4
Atom  19H    basis set group =>   4
-------------------------------
AUXILIARY BASIS SET INFORMATION
-------------------------------
There are 4 groups of distinct atoms

 Group   1 Type N   : 12s5p4d2f1g contracted to 6s4p3d1f1g pattern {711111/2111/211/2/1}
 Group   2 Type C   : 12s5p4d2f1g contracted to 6s4p3d1f1g pattern {711111/2111/211/2/1}
 Group   3 Type O   : 12s5p4d2f1g contracted to 6s4p3d1f1g pattern {711111/2111/211/2/1}
 Group   4 Type H   : 5s2p1d contracted to 3s1p1d pattern {311/2/1}

Atom   0N    basis set group =>   1
Atom   1C    basis set group =>   2
Atom   2C    basis set group =>   2
Atom   3N    basis set group =>   1
Atom   4N    basis set group =>   1
Atom   5N    basis set group =>   1
Atom   6C    basis set group =>   2
Atom   7O    basis set group =>   3
Atom   8C    basis set group =>   2
Atom   9C    basis set group =>   2
Atom  10H    basis set group =>   4
Atom  11H    basis set group =>   4
Atom  12H    basis set group =>   4
Atom  13H    basis set group =>   4
Atom  14H    basis set group =>   4
Atom  15H    basis set group =>   4
Atom  16H    basis set group =>   4
Atom  17H    basis set group =>   4
Atom  18H    basis set group =>   4
Atom  19H    basis set group =>   4


           ************************************************************
           *        Program running with 6 parallel MPI-processes     *
           *              working on a common directory               *
           ************************************************************
------------------------------------------------------------------------------
                           ORCA GTO INTEGRAL CALCULATION
                           -- RI-GTO INTEGRALS CHOSEN --
------------------------------------------------------------------------------

                         BASIS SET STATISTICS AND STARTUP INFO

Gaussian basis set:
 # of primitive gaussian shells          ...  270
 # of primitive gaussian functions       ...  410
 # of contracted shells                  ...   90
 # of contracted basis functions         ...  190
 Highest angular momentum                ...    2
 Maximum contraction depth               ...    8
Auxiliary gaussian basis set:
 # of primitive gaussian shells          ...  320
 # of primitive gaussian functions       ...  860
 # of contracted shells                  ...  200
 # of contracted aux-basis functions     ...  600
 Highest angular momentum                ...    4
 Maximum contraction depth               ...    7
Ratio of auxiliary to basis functions    ...  3.16
Integral package used                  ... LIBINT
 One Electron integrals                  ... done
 Ordering auxiliary basis shells         ... done
 Integral threshhold             Thresh  ...  2.500e-11
 Primitive cut-off               TCut    ...  2.500e-12
 Pre-screening matrix                    ... done
 Shell pair data                         ... 
 Ordering of the shell pairs             ... done (   0.001 sec) 3462 of 4095 pairs
 Determination of significant pairs      ... done (   0.000 sec)
 Creation of shell pair data             ... done (   0.002 sec)
 Storage of shell pair data              ... done (   0.003 sec)
 Shell pair data done in (   0.005 sec)
 Computing two index integrals           ... done
 Cholesky decomposition of the V-matrix  ... done


Timings:
 Total evaluation time                   ...   0.409 sec (  0.007 min)
 One electron matrix time                ...   0.057 sec (  0.001 min) = 13.9%
 Schwartz matrix evaluation time         ...   0.293 sec (  0.005 min) = 71.6%
 Two index repulsion integral time       ...   0.023 sec (  0.000 min) =  5.6%
 Cholesky decomposition of V             ...   0.011 sec (  0.000 min) =  2.8%
 Three index repulsion integral time     ...   0.000 sec (  0.000 min) =  0.0%



           ************************************************************
           *        Program running with 6 parallel MPI-processes     *
           *              working on a common directory               *
           ************************************************************
-------------------------------------------------------------------------------
                                 ORCA SCF
-------------------------------------------------------------------------------

------------
SCF SETTINGS
------------
Hamiltonian:
 Density Functional     Method          .... DFT(GTOs)
 Exchange Functional    Exchange        .... B88
   X-Alpha parameter    XAlpha          ....  0.666667
   Becke's b parameter  XBeta           ....  0.004200
 Correlation Functional Correlation     .... LYP
 LDA part of GGA corr.  LDAOpt          .... VWN-5
 Gradients option       PostSCFGGA      .... off
 Hybrid DFT is turned on
   Fraction HF Exchange ScalHFX         ....  0.200000
   Scaling of DF-GGA-X  ScalDFX         ....  0.720000
   Scaling of DF-GGA-C  ScalDFC         ....  0.810000
   Scaling of DF-LDA-C  ScalLDAC        ....  1.000000
   Perturbative correction              ....  0.000000
   NL short-range parameter             ....  4.800000
 RI-approximation to the Coulomb term is turned on
   Number of auxiliary basis functions  .... 600
   RIJ-COSX (HFX calculated with COS-X)).... on


General Settings:
 Integral files         IntName         .... AT-v/e/frag_12_c00001
 Hartree-Fock type      HFTyp           .... RHF
 Total Charge           Charge          ....    0
 Multiplicity           Mult            ....    1
 Number of Electrons    NEL             ....   76
 Basis Dimension        Dim             ....  190
 Nuclear Repulsion      ENuc            ....    488.9451736766 Eh

Convergence Acceleration:
 DIIS                   CNVDIIS         .... on
   Start iteration      DIISMaxIt       ....    12
   Startup error        DIISStart       ....  0.200000
   # of expansion vecs  DIISMaxEq       ....     5
   Bias factor          DIISBfac        ....   1.050
   Max. coefficient     DIISMaxC        ....  10.000
 Newton-Raphson         CNVNR           .... off
 SOSCF                  CNVSOSCF        .... on
   Start iteration      SOSCFMaxIt      ....   150
   Startup grad/error   SOSCFStart      ....  0.003300
 Level Shifting         CNVShift        .... on
   Level shift para.    LevelShift      ....    0.2500
   Turn off err/grad.   ShiftErr        ....    0.0010
 Zerner damping         CNVZerner       .... off
 Static damping         CNVDamp         .... on
   Fraction old density DampFac         ....    0.7000
   Max. Damping (<1)    DampMax         ....    0.9800
   Min. Damping (>=0)   DampMin         ....    0.0000
   Turn off err/grad.   DampErr         ....    0.1000
 Fernandez-Rico         CNVRico         .... off

SCF Procedure:
 Maximum # iterations   MaxIter         ....   125
 SCF integral mode      SCFMode         .... Direct
   Integral package                     .... LIBINT
 Reset frequeny         DirectResetFreq ....    20
 Integral Threshold     Thresh          ....  2.500e-11 Eh
 Primitive CutOff       TCut            ....  2.500e-12 Eh

Convergence Tolerance:
 Convergence Check Mode ConvCheckMode   .... Total+1el-Energy
 Convergence forced     ConvForced      .... 0
 Energy Change          TolE            ....  1.000e-08 Eh
 1-El. energy change                    ....  1.000e-05 Eh
 Orbital Gradient       TolG            ....  1.000e-05
 Orbital Rotation angle TolX            ....  1.000e-05
 DIIS Error             TolErr          ....  5.000e-07


Diagonalization of the overlap matrix:
Smallest eigenvalue                        ... 2.120e-03
Time for diagonalization                   ...    0.009 sec
Threshold for overlap eigenvalues          ... 1.000e-08
Number of eigenvalues below threshold      ... 0
Time for construction of square roots      ...    0.004 sec
Total time needed                          ...    0.013 sec

-------------------
DFT GRID GENERATION
-------------------

General Integration Accuracy     IntAcc      ...  4.340
Radial Grid Type                 RadialGrid  ... Gauss-Chebyshev
Angular Grid (max. acc.)         AngularGrid ... Lebedev-110
Angular grid pruning method      GridPruning ... 3 (G Style)
Weight generation scheme         WeightScheme... Becke
Basis function cutoff            BFCut       ...    1.0000e-11
Integration weight cutoff        WCut        ...    1.0000e-14
Grids for H and He will be reduced by one unit

# of grid points (after initial pruning)     ...  24744 (   0.0 sec)
# of grid points (after weights+screening)   ...  23047 (   0.0 sec)
nearest neighbour list constructed           ...    0.0 sec
Grid point re-assignment to atoms done       ...    0.0 sec
Grid point division into batches done        ...    0.0 sec
Reduced shell lists constructed in    0.1 sec

Total number of grid points                  ...    23047
Total number of batches                      ...      369
Average number of points per batch           ...       62
Average number of grid points per atom       ...     1152
Average number of shells per batch           ...    56.81 (63.12%)
Average number of basis functions per batch  ...   115.29 (60.68%)
Average number of large shells per batch     ...    41.54 (73.12%)
Average number of large basis fcns per batch ...    85.67 (74.31%)
Maximum spatial batch extension              ...   7.32, 12.15, 23.12 au
Average spatial batch extension              ...   0.36,  0.43,  0.60 au

Time for grid setup =    0.143 sec

------------------------------
INITIAL GUESS: MODEL POTENTIAL
------------------------------
Loading Hartree-Fock densities                     ... done
Calculating cut-offs                               ... done
Setting up the integral package                    ... done
Initializing the effective Hamiltonian             ... done
Starting the Coulomb interaction                   ... done (   0.1 sec)
Reading the grid                                   ... done
Mapping shells                                     ... done
Starting the XC term evaluation                    ... done (   0.1 sec)
  promolecular density results
     # of electrons  =     76.005623955
     EX              =    -63.100169276
     EC              =     -2.570455021
     EX+EC           =    -65.670624297
Transforming the Hamiltonian                       ... done (   0.0 sec)
Diagonalizing the Hamiltonian                      ... done (   0.0 sec)
Back transforming the eigenvectors                 ... done (   0.0 sec)
Now organizing SCF variables                       ... done
                      ------------------
                      INITIAL GUESS DONE (   0.4 sec)
                      ------------------
--------------------
COSX GRID GENERATION
--------------------

General Integration Accuracy     IntAcc      ...  3.340
Radial Grid Type                 RadialGrid  ... Gauss-Chebyshev
Angular Grid (max. acc.)         AngularGrid ... Lebedev-50
Angular grid pruning method      GridPruning ... 3 (G Style)
Weight generation scheme         WeightScheme... Becke
Basis function cutoff            BFCut       ...    1.0000e-11
Integration weight cutoff        WCut        ...    1.0000e-14
Grids for H and He will be reduced by one unit

# of grid points (after initial pruning)     ...   8944 (   0.0 sec)
# of grid points (after weights+screening)   ...   8403 (   0.0 sec)
nearest neighbour list constructed           ...    0.0 sec
Grid point re-assignment to atoms done       ...    0.0 sec
Grid point division into batches done        ...    0.0 sec
Reduced shell lists constructed in    0.0 sec

Total number of grid points                  ...     8403
Total number of batches                      ...      140
Average number of points per batch           ...       60
Average number of grid points per atom       ...      420
Average number of shells per batch           ...    58.36 (64.84%)
Average number of basis functions per batch  ...   119.24 (62.76%)
Average number of large shells per batch     ...    42.56 (72.93%)
Average number of large basis fcns per batch ...    88.00 (73.80%)
Maximum spatial batch extension              ...   5.36, 10.44, 24.91 au
Average spatial batch extension              ...   0.41,  0.55,  1.04 au

Overlap Fitting                  UseSFitting ... on
Constructing numerical overlap ... done (      0.0 sec)
Inverting numerical overlap    ... done (      0.0 sec)
Obtaining analytic overlap     ... done (      0.0 sec)
Final contraction and storage  ... done (      0.0 sec)


General Integration Accuracy     IntAcc      ...  3.670
Radial Grid Type                 RadialGrid  ... Gauss-Chebyshev
Angular Grid (max. acc.)         AngularGrid ... Lebedev-50
Angular grid pruning method      GridPruning ... 3 (G Style)
Weight generation scheme         WeightScheme... Becke
Basis function cutoff            BFCut       ...    1.0000e-11
Integration weight cutoff        WCut        ...    1.0000e-14
Grids for H and He will be reduced by one unit

# of grid points (after initial pruning)     ...  11444 (   0.0 sec)
# of grid points (after weights+screening)   ...  10720 (   0.0 sec)
nearest neighbour list constructed           ...    0.0 sec
Grid point re-assignment to atoms done       ...    0.0 sec
Grid point division into batches done        ...    0.0 sec
Reduced shell lists constructed in    0.0 sec

Total number of grid points                  ...    10720
Total number of batches                      ...      178
Average number of points per batch           ...       60
Average number of grid points per atom       ...      536
Average number of shells per batch           ...    58.26 (64.73%)
Average number of basis functions per batch  ...   118.84 (62.55%)
Average number of large shells per batch     ...    42.77 (73.42%)
Average number of large basis fcns per batch ...    88.39 (74.38%)
Maximum spatial batch extension              ...   5.43, 10.17, 28.35 au
Average spatial batch extension              ...   0.40,  0.50,  0.86 au

Overlap Fitting                  UseSFitting ... on
Constructing numerical overlap ... done (      0.0 sec)
Inverting numerical overlap    ... done (      0.0 sec)
Obtaining analytic overlap     ... done (      0.0 sec)
Final contraction and storage  ... done (      0.0 sec)


General Integration Accuracy     IntAcc      ...  4.010
Radial Grid Type                 RadialGrid  ... Gauss-Chebyshev
Angular Grid (max. acc.)         AngularGrid ... Lebedev-110
Angular grid pruning method      GridPruning ... 3 (G Style)
Weight generation scheme         WeightScheme... Becke
Basis function cutoff            BFCut       ...    1.0000e-11
Integration weight cutoff        WCut        ...    1.0000e-14
Grids for H and He will be reduced by one unit

# of grid points (after initial pruning)     ...  21314 (   0.0 sec)
# of grid points (after weights+screening)   ...  19895 (   0.0 sec)
nearest neighbour list constructed           ...    0.0 sec
Grid point re-assignment to atoms done       ...    0.0 sec
Grid point division into batches done        ...    0.0 sec
Reduced shell lists constructed in    0.1 sec

Total number of grid points                  ...    19895
Total number of batches                      ...      320
Average number of points per batch           ...       62
Average number of grid points per atom       ...      995
Average number of shells per batch           ...    56.87 (63.19%)
Average number of basis functions per batch  ...   115.38 (60.73%)
Average number of large shells per batch     ...    41.80 (73.50%)
Average number of large basis fcns per batch ...    86.16 (74.68%)
Maximum spatial batch extension              ...   7.61, 10.45, 20.99 au
Average spatial batch extension              ...   0.36,  0.43,  0.61 au

Overlap Fitting                  UseSFitting ... on
Constructing numerical overlap ... done (      0.0 sec)
Inverting numerical overlap    ... done (      0.0 sec)
Obtaining analytic overlap     ... done (      0.0 sec)
Final contraction and storage  ... done (      0.0 sec)

Time for X-Grid setup             =    0.388 sec
--------------
SCF ITERATIONS
--------------
ITER       Energy         Delta-E        Max-DP      RMS-DP      [F,P]     Damp
               ***  Starting incremental Fock matrix formation  ***
  0   -490.0981765626   0.000000000000 0.09116366  0.00257320  0.2645972 0.7000
  1   -490.2995110098  -0.201334447176 0.05675425  0.00168838  0.1141840 0.7000
                               ***Turning on DIIS***
  2   -490.3714291674  -0.071918157608 0.07772853  0.00240134  0.0427946 0.0000
  3   -490.4865434865  -0.115114319110 0.03722078  0.00118019  0.0653559 0.0000
  4   -490.5124030171  -0.025859530649 0.01178339  0.00034519  0.0150226 0.0000
  5   -490.5143526428  -0.001949625616 0.00316348  0.00011052  0.0040777 0.0000
                      *** Initiating the SOSCF procedure ***
                           *** Shutting down DIIS ***
                      *** Re-Reading the Fockian *** 
                      *** Removing any level shift *** 
ITER      Energy       Delta-E        Grad      Rot      Max-DP    RMS-DP
  6   -490.51444594  -0.0000933021  0.000383  0.000383  0.001339  0.000038
               *** Restarting incremental Fock matrix formation ***
  7   -490.51447410  -0.0000281572  0.000159  0.000517  0.000940  0.000028
  8   -490.51447328   0.0000008205  0.000294  0.000453  0.000795  0.000013
  9   -490.51447561  -0.0000023320  0.000068  0.000154  0.000224  0.000008
 10   -490.51447561  -0.0000000011  0.000050  0.000069  0.000144  0.000003
 11   -490.51447574  -0.0000001287  0.000020  0.000061  0.000081  0.000002
 12   -490.51447573   0.0000000153  0.000035  0.000043  0.000058  0.000001
 13   -490.51447575  -0.0000000206  0.000003  0.000009  0.000013  0.000000
 14   -490.51447575  -0.0000000017  0.000004  0.000007  0.000008  0.000000
                 **** Energy Check signals convergence ****
              ***Rediagonalizing the Fockian in SOSCF/NRSCF***

               *****************************************************
               *                     SUCCESS                       *
               *           SCF CONVERGED AFTER  15 CYCLES          *
               *****************************************************

Setting up the final grid:

General Integration Accuracy     IntAcc      ...  4.670
Radial Grid Type                 RadialGrid  ... Gauss-Chebyshev
Angular Grid (max. acc.)         AngularGrid ... Lebedev-302
Angular grid pruning method      GridPruning ... 3 (G Style)
Weight generation scheme         WeightScheme... Becke
Basis function cutoff            BFCut       ...    1.0000e-11
Integration weight cutoff        WCut        ...    1.0000e-14
Grids for H and He will be reduced by one unit

# of grid points (after initial pruning)     ...  96060 (   0.0 sec)
# of grid points (after weights+screening)   ...  88218 (   0.1 sec)
nearest neighbour list constructed           ...    0.0 sec
Grid point re-assignment to atoms done       ...    0.0 sec
Grid point division into batches done        ...    0.4 sec
Reduced shell lists constructed in    0.6 sec

Total number of grid points                  ...    88218
Total number of batches                      ...     1388
Average number of points per batch           ...       63
Average number of grid points per atom       ...     4411
Average number of shells per batch           ...    53.84 (59.82%)
Average number of basis functions per batch  ...   109.12 (57.43%)
Average number of large shells per batch     ...    39.21 (72.84%)
Average number of large basis fcns per batch ...    80.43 (73.71%)
Maximum spatial batch extension              ...  11.07, 13.13, 23.14 au
Average spatial batch extension              ...   0.26,  0.28,  0.36 au

Final grid set up in    0.7 sec
Final integration                            ... done (   0.3 sec)
Change in XC energy                          ...     0.000012396
Integrated number of electrons               ...    75.999949329
Previous integrated no of electrons          ...    76.001212349
Old exchange energy                            =    -12.818657088 Eh
New exchange energy                            =    -12.818149007 Eh
Exchange energy change after final integration =      0.000508081 Eh
Total energy after final integration           =   -490.513955269 Eh
Final COS-X integration done in                =     2.739 sec

----------------
TOTAL SCF ENERGY
----------------

Total Energy       :         -490.51395527 Eh          -13347.56330 eV

Components:
Nuclear Repulsion  :          488.94517368 Eh           13304.87458 eV
Electronic Energy  :         -979.45912895 Eh          -26652.43788 eV
One Electron Energy:        -1635.88177880 Eh          -44514.60628 eV
Two Electron Energy:          656.42264985 Eh           17862.16840 eV

Virial components:
Potential Energy   :         -978.05887110 Eh          -26614.33493 eV
Kinetic Energy     :          487.54491583 Eh           13266.77163 eV
Virial Ratio       :            2.00608978


DFT components:
N(Alpha)           :       37.999974664562 electrons
N(Beta)            :       37.999974664562 electrons
N(Total)           :       75.999949329124 electrons
E(X)               :      -50.970260975728 Eh       
E(C)               :       -3.039522630950 Eh       
E(XC)              :      -54.009783606678 Eh       

---------------
SCF CONVERGENCE
---------------

  Last Energy change         ...    4.4059e-09  Tolerance :   1.0000e-08
  Last MAX-Density change    ...    3.0179e-13  Tolerance :   1.0000e-07
  Last RMS-Density change    ...    1.9185e-15  Tolerance :   5.0000e-09
  Last Orbital Gradient      ...    8.1329e-07  Tolerance :   1.0000e-05
  Last Orbital Rotation      ...    3.3972e-06  Tolerance :   1.0000e-05

             **** THE GBW FILE WAS UPDATED (AT-v/e/frag_12_c00001.gbw) ****
             **** DENSITY FILE WAS UPDATED (AT-v/e/frag_12_c00001.scfp.tmp) ****
             **** ENERGY FILE WAS UPDATED (AT-v/e/frag_12_c00001.en.tmp) ****
----------------
ORBITAL ENERGIES
----------------

  NO   OCC          E(Eh)            E(eV) 
   0   2.0000     -19.096607      -519.6451 
   1   2.0000     -14.341282      -390.2461 
   2   2.0000     -14.317101      -389.5881 
   3   2.0000     -14.316788      -389.5796 
   4   2.0000     -14.300414      -389.1340 
   5   2.0000     -10.276670      -279.6424 
   6   2.0000     -10.260086      -279.1911 
   7   2.0000     -10.252383      -278.9815 
   8   2.0000     -10.201683      -277.6019 
   9   2.0000     -10.195569      -277.4355 
  10   2.0000      -1.025698       -27.9107 
  11   2.0000      -0.947619       -25.7860 
  12   2.0000      -0.901081       -24.5197 
  13   2.0000      -0.881639       -23.9906 
  14   2.0000      -0.843676       -22.9576 
  15   2.0000      -0.778373       -21.1806 
  16   2.0000      -0.659165       -17.9368 
  17   2.0000      -0.633838       -17.2476 
  18   2.0000      -0.569231       -15.4896 
  19   2.0000      -0.558709       -15.2032 
  20   2.0000      -0.528161       -14.3720 
  21   2.0000      -0.522651       -14.2220 
  22   2.0000      -0.492143       -13.3919 
  23   2.0000      -0.470193       -12.7946 
  24   2.0000      -0.449332       -12.2269 
  25   2.0000      -0.443534       -12.0692 
  26   2.0000      -0.425018       -11.5653 
  27   2.0000      -0.403306       -10.9745 
  28   2.0000      -0.395415       -10.7598 
  29   2.0000      -0.390363       -10.6223 
  30   2.0000      -0.373678       -10.1683 
  31   2.0000      -0.317661        -8.6440 
  32   2.0000      -0.296081        -8.0568 
  33   2.0000      -0.277616        -7.5543 
  34   2.0000      -0.272733        -7.4214 
  35   2.0000      -0.250245        -6.8095 
  36   2.0000      -0.246317        -6.7026 
  37   2.0000      -0.234107        -6.3704 
  38   0.0000      -0.052593        -1.4311 
  39   0.0000      -0.035971        -0.9788 
  40   0.0000       0.051824         1.4102 
  41   0.0000       0.061499         1.6735 
  42   0.0000       0.082767         2.2522 
  43   0.0000       0.085765         2.3338 
  44   0.0000       0.090023         2.4497 
  45   0.0000       0.105211         2.8629 
  46   0.0000       0.112913         3.0725 
  47   0.0000       0.136580         3.7165 
  48   0.0000       0.146047         3.9741 
  49   0.0000       0.175506         4.7758 
  50   0.0000       0.217606         5.9214 
  51   0.0000       0.235214         6.4005 
  52   0.0000       0.254064         6.9134 
  53   0.0000       0.281369         7.6564 
  54   0.0000       0.304445         8.2844 
  55   0.0000       0.327849         8.9212 
  56   0.0000       0.333750         9.0818 
  57   0.0000       0.368352        10.0234 
  58   0.0000       0.380472        10.3532 
  59   0.0000       0.407390        11.0857 
  60   0.0000       0.462180        12.5766 
  61   0.0000       0.465775        12.6744 
  62   0.0000       0.473333        12.8800 
  63   0.0000       0.477602        12.9962 
  64   0.0000       0.484685        13.1890 
  65   0.0000       0.503967        13.7136 
  66   0.0000       0.509365        13.8605 
  67   0.0000       0.530068        14.4239 
  68   0.0000       0.537150        14.6166 
  69   0.0000       0.551868        15.0171 
  70   0.0000       0.559631        15.2283 
  71   0.0000       0.563584        15.3359 
  72   0.0000       0.566515        15.4157 
  73   0.0000       0.589691        16.0463 
  74   0.0000       0.601671        16.3723 
  75   0.0000       0.623913        16.9775 
  76   0.0000       0.627589        17.0776 
  77   0.0000       0.649387        17.6707 
  78   0.0000       0.655016        17.8239 
  79   0.0000       0.673799        18.3350 
  80   0.0000       0.693174        18.8622 
  81   0.0000       0.715502        19.4698 
  82   0.0000       0.725004        19.7284 
  83   0.0000       0.748296        20.3622 
  84   0.0000       0.751330        20.4447 
  85   0.0000       0.769292        20.9335 
  86   0.0000       0.789277        21.4773 
  87   0.0000       0.803045        21.8520 
  88   0.0000       0.814669        22.1683 
  89   0.0000       0.838276        22.8107 
  90   0.0000       0.852746        23.2044 
  91   0.0000       0.875474        23.8229 
  92   0.0000       0.896209        24.3871 
  93   0.0000       0.906449        24.6657 
  94   0.0000       0.928964        25.2784 
  95   0.0000       0.934677        25.4338 
  96   0.0000       0.965917        26.2839 
  97   0.0000       0.972922        26.4746 
  98   0.0000       0.982712        26.7409 
  99   0.0000       0.999814        27.2063 
 100   0.0000       1.009905        27.4809 
 101   0.0000       1.026850        27.9420 
 102   0.0000       1.035024        28.1644 
 103   0.0000       1.073255        29.2048 
 104   0.0000       1.087960        29.6049 
 105   0.0000       1.100956        29.9585 
 106   0.0000       1.124591        30.6017 
 107   0.0000       1.153487        31.3880 
 108   0.0000       1.175075        31.9754 
 109   0.0000       1.196500        32.5584 
 110   0.0000       1.243447        33.8359 
 111   0.0000       1.268036        34.5050 
 112   0.0000       1.274136        34.6710 
 113   0.0000       1.291984        35.1567 
 114   0.0000       1.313468        35.7413 
 115   0.0000       1.334521        36.3142 
 116   0.0000       1.347026        36.6545 
 117   0.0000       1.375239        37.4221 
 118   0.0000       1.392043        37.8794 
 119   0.0000       1.454650        39.5830 
 120   0.0000       1.476085        40.1663 
 121   0.0000       1.485897        40.4333 
 122   0.0000       1.498124        40.7660 
 123   0.0000       1.503323        40.9075 
 124   0.0000       1.513636        41.1881 
 125   0.0000       1.526621        41.5415 
 126   0.0000       1.544772        42.0354 
 127   0.0000       1.554752        42.3070 
 128   0.0000       1.575784        42.8793 
 129   0.0000       1.624196        44.1966 
 130   0.0000       1.634834        44.4861 
 131   0.0000       1.642590        44.6972 
 132   0.0000       1.662539        45.2400 
 133   0.0000       1.686661        45.8964 
 134   0.0000       1.696220        46.1565 
 135   0.0000       1.712415        46.5972 
 136   0.0000       1.722338        46.8672 
 137   0.0000       1.738837        47.3162 
 138   0.0000       1.747500        47.5519 
 139   0.0000       1.771665        48.2094 
 140   0.0000       1.789581        48.6970 
 141   0.0000       1.813951        49.3601 
 142   0.0000       1.873583        50.9828 
 143   0.0000       1.882399        51.2227 
 144   0.0000       1.911497        52.0145 
 145   0.0000       1.925489        52.3952 
 146   0.0000       1.943490        52.8850 
 147   0.0000       1.968862        53.5755 
 148   0.0000       2.002358        54.4869 
 149   0.0000       2.028884        55.2087 
 150   0.0000       2.047150        55.7058 
 151   0.0000       2.059624        56.0452 
 152   0.0000       2.087198        56.7956 
 153   0.0000       2.116899        57.6038 
 154   0.0000       2.149553        58.4923 
 155   0.0000       2.186910        59.5088 
 156   0.0000       2.193158        59.6789 
 157   0.0000       2.213235        60.2252 
 158   0.0000       2.218475        60.3678 
 159   0.0000       2.257638        61.4335 
 160   0.0000       2.274718        61.8982 
 161   0.0000       2.296319        62.4860 
 162   0.0000       2.310696        62.8772 
 163   0.0000       2.337022        63.5936 
 164   0.0000       2.366255        64.3891 
 165   0.0000       2.394433        65.1558 
 166   0.0000       2.425247        65.9943 
 167   0.0000       2.434554        66.2476 
 168   0.0000       2.515551        68.4516 
 169   0.0000       2.535793        69.0024 
 170   0.0000       2.560754        69.6817 
 171   0.0000       2.599669        70.7406 
 172   0.0000       2.625915        71.4548 
 173   0.0000       2.645368        71.9841 
 174   0.0000       2.653731        72.2117 
 175   0.0000       2.717368        73.9433 
 176   0.0000       2.744640        74.6855 
 177   0.0000       2.755799        74.9891 
 178   0.0000       2.782324        75.7109 
 179   0.0000       2.812849        76.5415 
 180   0.0000       2.906389        79.0869 
 181   0.0000       2.924899        79.5906 
 182   0.0000       2.998872        81.6035 
 183   0.0000       3.006067        81.7992 
 184   0.0000       3.107948        84.5716 
 185   0.0000       3.180195        86.5375 
 186   0.0000       3.291012        89.5530 
 187   0.0000       3.342520        90.9546 
 188   0.0000       3.482098        94.7527 
 189   0.0000       3.557661        96.8089 
-------
TIMINGS
-------

Total SCF time: 0 days 0 hours 0 min 29 sec 

Total time                  ....      29.119 sec
Sum of individual times     ....      29.019 sec  ( 99.7%)

Fock matrix formation       ....      27.165 sec  ( 93.3%)
  Split-RI-J                ....       4.477 sec  ( 16.5% of F)
  Chain of spheres X        ....      20.809 sec  ( 76.6% of F)
  COS-X 1 center corr.      ....       0.000 sec  (  0.0% of F)
  XC integration            ....       1.806 sec  (  6.6% of F)
    Basis function eval.    ....       0.674 sec  ( 37.3% of XC)
    Density eval.           ....       0.294 sec  ( 16.3% of XC)
    XC-Functional eval.     ....       0.081 sec  (  4.5% of XC)
    XC-Potential eval.      ....       0.571 sec  ( 31.6% of XC)
Diagonalization             ....       0.074 sec  (  0.3%)
Density matrix formation    ....       0.040 sec  (  0.1%)
Population analysis         ....       0.000 sec  (  0.0%)
Initial guess               ....       0.296 sec  (  1.0%)
Orbital Transformation      ....       0.000 sec  (  0.0%)
Orbital Orthonormalization  ....       0.000 sec  (  0.0%)
DIIS solution               ....       0.024 sec  (  0.1%)
SOSCF solution              ....       0.141 sec  (  0.5%)
Grid generation             ....       1.278 sec  (  4.4%)


-------------------------------------------------------------------------------
                          DFT DISPERSION CORRECTION                            
                                                                               
                              DFTD3 V3.1  Rev 1                                
                          USING Becke-Johnson damping                          
-------------------------------------------------------------------------------
The B3LYP functional is recognized
Active option DFTDOPT                   ...         4   

molecular C6(AA) [au] = 3967.922347 


            DFT-D V3
 parameters
 s6 scaling factor         :     1.0000 
 a1 scaling factor         :     0.3981 
 s8 scaling factor         :     1.9889 
 a2 scaling factor         :     4.4211 
 ad hoc parameters k1-k3   :    16.0000     1.3333    -4.0000 

 Edisp/kcal,au: -18.149037304976  -0.028922328856 
 E6   /kcal   :  -8.880678007 
 E8   /kcal   :  -9.268359298 
 % E8         :  51.068049188 

-------------------------   ----------------
Dispersion correction           -0.028922329
-------------------------   ----------------


-------------------------   --------------------
FINAL SINGLE POINT ENERGY      -490.542877598108
-------------------------   --------------------



           ************************************************************
           *        Program running with 6 parallel MPI-processes     *
           *              working on a common directory               *
           ************************************************************
------------------------------------------------------------------------------
                         ORCA SCF GRADIENT CALCULATION
------------------------------------------------------------------------------

Gradient of the Kohn-Sham DFT energy:
Kohn-Sham wavefunction type      ... RKS
Hartree-Fock exchange scaling    ...    0.200
Number of operators              ...    1
Number of atoms                  ...   20
Basis set dimensions             ...  190
Integral neglect threshold       ... 2.5e-11
Integral primitive cutoff        ... 2.5e-12

Nuclear repulsion gradient       ... done
One Electron Gradient            ... done
Pre-screening matrix             ... done
RI-J gradient                    ... done
COSX-gradient                    ... done
Exchange-correlation gradient    ... done
Dispersion correction            ... done

------------------
CARTESIAN GRADIENT
------------------

   1   N   :    0.014942573   -0.023139172   -0.001510898
   2   C   :   -0.000641242    0.031649055    0.006899871
   3   C   :   -0.008709519   -0.005400378   -0.003905647
   4   N   :   -0.014179171    0.002052940   -0.002664976
   5   N   :   -0.003924845   -0.000796550   -0.000473799
   6   N   :    0.003760640    0.003002747   -0.002511547
   7   C   :    0.001851775   -0.023046141    0.008308442
   8   O   :   -0.004870020    0.016628208   -0.004057780
   9   C   :    0.009389144   -0.007261526    0.002538264
  10   C   :   -0.003516442    0.012496604   -0.004436500
  11   H   :   -0.002417222    0.001583378   -0.000750017
  12   H   :    0.002545831   -0.003725135    0.000060781
  13   H   :   -0.002694687   -0.001466349    0.003681939
  14   H   :    0.007602307   -0.000373246    0.000564747
  15   H   :    0.001219566    0.002042151    0.000901588
  16   H   :    0.005567598    0.001629853   -0.000142679
  17   H   :   -0.009904229   -0.004724060    0.001166142
  18   H   :    0.000752470    0.005121286   -0.001367420
  19   H   :   -0.002953076   -0.006398074    0.001052155
  20   H   :    0.004938036   -0.000058197    0.000676192

Difference to translation invariance:
           :   -0.0012405127   -0.0001826050    0.0040288573

Norm of the cartesian gradient     ...    0.0618184823
RMS gradient                       ...    0.0079807318
MAX gradient                       ...    0.0316490551

-------
TIMINGS
-------

Total SCF gradient time            ...        5.964 sec

One electron gradient       ....       0.113 sec  (  1.9%)
Prescreening matrices       ....       0.130 sec  (  2.2%)
RI-J Coulomb gradient       ....       0.952 sec  ( 16.0%)
COSX gradient               ....       2.751 sec  ( 46.1%)
XC gradient                 ....       1.533 sec  ( 25.7%)
------------------------------------------------------------------------------
                         ORCA GEOMETRY RELAXATION STEP
------------------------------------------------------------------------------

Reading the OPT-File                    .... done
Getting information on internals        .... done
Copying old internal coords+grads       .... done
Making the new internal coordinates     .... (new redundants).... done
Validating the new internal coordinates .... (new redundants).... done
Calculating the B-matrix                .... done
Calculating the G,G- and P matrices     .... done
Transforming gradient to internals      .... done
Projecting the internal gradient        .... done
Number of atoms                         ....  20
Number of internal coordinates          ....  84
Current Energy                          ....  -490.542877598 Eh
Current gradient norm                   ....     0.061818482 Eh/bohr
Maximum allowed component of the step   ....  0.300
Current trust radius                    ....  0.300
Evaluating the initial hessian          ....  (Almloef) done
Projecting the Hessian                  .... done
Forming the augmented Hessian           .... done
Diagonalizing the augmented Hessian     .... done
Last element of RFO vector              ....  0.967961564
Lowest eigenvalues of augmented Hessian:
 -0.006102118  0.009764320  0.010707132  0.013559040  0.020898555
Length of the computed step             ....  0.259409484
The final length of the internal step   ....  0.259409484
Converting the step to cartesian space:
 Initial RMS(Int)=    0.0283038952
Transforming coordinates:
 Iter   0:  RMS(Cart)=    0.0834265159 RMS(Int)=    0.6799386660
 Iter   1:  RMS(Cart)=    0.0029707747 RMS(Int)=    0.0015462210
 Iter   2:  RMS(Cart)=    0.0002305990 RMS(Int)=    0.0001201813
 Iter   3:  RMS(Cart)=    0.0000501143 RMS(Int)=    0.0000262290
 Iter   4:  RMS(Cart)=    0.0000231337 RMS(Int)=    0.0000101734
 Iter   5:  RMS(Cart)=    0.0000105941 RMS(Int)=    0.0000048388
 Iter   6:  RMS(Cart)=    0.0000052052 RMS(Int)=    0.0000023211
 Iter   7:  RMS(Cart)=    0.0000025900 RMS(Int)=    0.0000011199
 Iter   8:  RMS(Cart)=    0.0000012880 RMS(Int)=    0.0000005429
 Iter   9:  RMS(Cart)=    0.0000006415 RMS(Int)=    0.0000002644
 Iter  10:  RMS(Cart)=    0.0000003201 RMS(Int)=    0.0000001293
 Iter  11:  RMS(Cart)=    0.0000001600 RMS(Int)=    0.0000000635
 Iter  12:  RMS(Cart)=    0.0000000801 RMS(Int)=    0.0000000313
done
Storing new coordinates                 .... done

                                .--------------------.
          ----------------------|Geometry convergence|-------------------------
          Item                value                   Tolerance       Converged
          ---------------------------------------------------------------------
          RMS gradient        0.0052558602            0.0020000000      NO
          MAX gradient        0.0249974898            0.0030000000      NO
          RMS step            0.0283038952            0.0200000000      NO
          MAX step            0.1302374291            0.0300000000      NO
          ........................................................
          Max(Bonds)      0.0689      Max(Angles)    1.89
          Max(Dihed)        6.23      Max(Improp)    0.00
          ---------------------------------------------------------------------

The optimization has not yet converged - more geometry cycles are needed


    ---------------------------------------------------------------------------
                         Redundant Internal Coordinates
                            (Angstroem and degrees)

        Definition                    Value    dE/dq     Step     New-Value
    ----------------------------------------------------------------------------
     1. B(C   1,N   0)                1.2933  0.024997 -0.0164    1.2769   
     2. B(C   2,C   1)                1.5190  0.014555 -0.0195    1.4995   
     3. B(N   3,C   2)                1.3613  0.004208 -0.0034    1.3579   
     4. B(N   4,C   2)                1.2969 -0.001771  0.0008    1.2977   
     5. B(C   6,N   5)                1.3548  0.000268 -0.0002    1.3547   
     6. B(O   7,C   6)                1.2282 -0.017904  0.0097    1.2379   
     7. B(C   8,C   6)                1.4820 -0.009018  0.0106    1.4926   
     8. B(C   9,C   8)                1.3427  0.005960 -0.0042    1.3385   
     9. B(H  10,N   0)                1.0263 -0.002159  0.0028    1.0290   
    10. B(H  11,C   1)                1.1015 -0.001999  0.0030    1.1045   
    11. B(H  12,N   3)                1.0180  0.000601 -0.0007    1.0173   
    12. B(H  13,N   3)                1.0244 -0.008120  0.0109    1.0353   
    13. B(H  13,O   7)                1.8172 -0.001072  0.0294    1.8466   
    14. B(H  14,N   4)                1.0263  0.002467 -0.0032    1.0231   
    15. B(H  15,N   5)                1.0089 -0.001401  0.0017    1.0105   
    16. B(H  16,N   5)                1.0257 -0.014532  0.0177    1.0434   
    17. B(H  16,N   4)                1.8072 -0.004441  0.0689    1.8761   
    18. B(H  17,C   8)                1.0857 -0.005229  0.0074    1.0931   
    19. B(H  18,C   9)                1.0830 -0.007042  0.0099    1.0929   
    20. B(H  19,C   9)                1.0865 -0.004926  0.0070    1.0936   
    21. A(C   1,N   0,H  10)          109.41 -0.003643    0.55    109.96   
    22. A(N   0,C   1,C   2)          120.02  0.001107   -0.12    119.90   
    23. A(N   0,C   1,H  11)          123.52 -0.004787    0.77    124.29   
    24. A(C   2,C   1,H  11)          116.46  0.003656   -0.60    115.86   
    25. A(C   1,C   2,N   3)          118.17  0.011908   -1.68    116.49   
    26. A(N   3,C   2,N   4)          121.83 -0.005407    0.78    122.61   
    27. A(C   1,C   2,N   4)          120.01 -0.006501    0.90    120.91   
    28. A(C   2,N   3,H  13)          115.15  0.000364    0.49    115.63   
    29. A(H  12,N   3,H  13)          113.05 -0.003068    1.20    114.25   
    30. A(C   2,N   3,H  12)          113.91  0.000911    0.03    113.94   
    31. A(C   2,N   4,H  14)          110.65  0.001027   -0.14    110.51   
    32. A(C   2,N   4,H  16)          116.62 -0.001392    0.14    116.77   
    33. A(H  14,N   4,H  16)          131.59  0.000162    0.00    131.59   
    34. A(H  15,N   5,H  16)          116.24 -0.004596    0.79    117.03   
    35. A(C   6,N   5,H  16)          117.25 -0.001492    0.31    117.56   
    36. A(C   6,N   5,H  15)          123.96  0.005888   -1.07    122.89   
    37. A(O   7,C   6,C   8)          120.58  0.008692   -1.27    119.31   
    38. A(N   5,C   6,C   8)          117.70 -0.007954    0.92    118.63   
    39. A(N   5,C   6,O   7)          121.72 -0.000738    0.34    122.06   
    40. A(C   6,O   7,H  13)          116.82 -0.001102    0.98    117.80   
    41. A(C   9,C   8,H  17)          119.83  0.000425   -0.03    119.80   
    42. A(C   6,C   8,H  17)          113.55  0.002816   -0.43    113.12   
    43. A(C   6,C   8,C   9)          126.62 -0.003248    0.47    127.09   
    44. A(H  18,C   9,H  19)          116.63  0.000111   -0.02    116.61   
    45. A(C   8,C   9,H  19)          119.65 -0.002021    0.31    119.96   
    46. A(C   8,C   9,H  18)          123.72  0.001909   -0.29    123.43   
    47. L(N   3,H  13,O   7,C   2, 2) 176.34 -0.000769    0.21    176.55   
    48. L(N   3,H  13,O   7,C   2, 1) 178.99  0.002519   -0.43    178.56   
    49. L(N   4,H  16,N   5,C   6, 2) 185.46  0.000735   -0.14    185.32   
    50. L(N   4,H  16,N   5,C   6, 1) 180.54  0.006773   -1.89    178.65   
    51. D(H  11,C   1,N   0,H  10)     -0.03 -0.000004   -0.97     -1.00   
    52. D(C   2,C   1,N   0,H  10)    179.23 -0.002261    3.32    182.55   
    53. D(N   3,C   2,C   1,H  11)    179.28  0.000457   -2.23    177.06   
    54. D(N   3,C   2,C   1,N   0)     -0.02  0.002620   -6.23     -6.25   
    55. D(N   4,C   2,C   1,N   0)    179.98  0.001722   -5.32    174.66   
    56. D(N   4,C   2,C   1,H  11)     -0.71 -0.000440   -1.32     -2.03   
    57. D(H  12,N   3,C   2,C   1)     18.74  0.002307   -1.25     17.49   
    58. D(H  13,N   3,C   2,C   1)    151.68 -0.001012    1.12    152.79   
    59. D(H  13,N   3,C   2,N   4)    -28.33 -0.000098    0.19    -28.13   
    60. D(H  12,N   3,C   2,N   4)   -161.26  0.003222   -2.18   -163.44   
    61. D(H  16,N   4,C   2,N   3)     11.16 -0.000102    0.85     12.01   
    62. D(H  14,N   4,C   2,N   3)   -179.63 -0.001015    0.86   -178.77   
    63. D(H  14,N   4,C   2,C   1)      0.37 -0.000084   -0.08      0.29   
    64. D(H  16,N   4,C   2,C   1)   -168.85  0.000830   -0.09   -168.94   
    65. D(C   6,N   5,N   4,C   2)     10.15  0.000514   -1.84      8.31   
    66. D(H  15,N   5,N   4,H  14)     41.33 -0.000534   -1.18     40.15   
    67. D(H  15,N   5,N   4,C   2)   -150.59 -0.000708   -1.46   -152.05   
    68. D(C   6,N   5,N   4,H  14)   -157.93  0.000687   -1.56   -159.49   
    69. D(C   8,C   6,N   5,H  16)   -172.69  0.001700   -0.97   -173.66   
    70. D(C   8,C   6,N   5,H  15)    -11.48  0.000038   -0.72    -12.20   
    71. D(O   7,C   6,N   5,H  16)      7.31  0.000413    0.38      7.69   
    72. D(O   7,C   6,N   5,H  15)    168.52 -0.001249    0.63    169.15   
    73. D(H  13,O   7,C   6,C   8)    153.13 -0.001602    1.87    155.00   
    74. D(H  13,O   7,C   6,N   5)    -26.86 -0.000278    0.48    -26.39   
    75. D(C   6,O   7,N   3,H  12)    179.47  0.001509    0.22    179.69   
    76. D(C   6,O   7,N   3,C   2)     45.22  0.002353   -1.52     43.70   
    77. D(H  17,C   8,C   6,O   7)     -0.80  0.000665   -1.11     -1.90   
    78. D(H  17,C   8,C   6,N   5)    179.20 -0.000607    0.23    179.43   
    79. D(C   9,C   8,C   6,O   7)    179.96  0.001248   -2.10    177.86   
    80. D(C   9,C   8,C   6,N   5)     -0.04 -0.000024   -0.76     -0.81   
    81. D(H  18,C   9,C   8,C   6)     -1.13 -0.000203    0.40     -0.73   
    82. D(H  19,C   9,C   8,H  17)      0.26  0.000545   -0.83     -0.57   
    83. D(H  19,C   9,C   8,C   6)    179.46 -0.000058    0.22    179.67   
    84. D(H  18,C   9,C   8,H  17)    179.67  0.000400   -0.65    179.02   
    ----------------------------------------------------------------------------

         *************************************************************
         *                GEOMETRY OPTIMIZATION CYCLE   2            *
         *************************************************************
---------------------------------
CARTESIAN COORDINATES (ANGSTROEM)
---------------------------------
  N      3.738876   -1.804527   -0.086620
  C      3.182065   -0.657069   -0.147271
  C      1.688198   -0.555704   -0.229253
  N      1.008481   -1.723207   -0.365935
  N      1.095105    0.597783   -0.188321
  N     -1.809669    0.541278    0.086793
  C     -2.375743   -0.664845    0.331870
  O     -1.699841   -1.662558    0.615100
  C     -3.863266   -0.779059    0.286362
  C     -4.740769    0.200856    0.038590
  H      4.757796   -1.696041    0.007834
  H      3.726618    0.302030   -0.087295
  H      1.550970   -2.547834   -0.119867
  H      0.041677   -1.724344    0.004353
  H      1.782017    1.351205   -0.102642
  H     -2.324519    1.321040   -0.298059
  H     -0.769053    0.582227    0.022771
  H     -4.222279   -1.791786    0.487366
  H     -4.448608    1.236211   -0.154261
  H     -5.812658   -0.015556    0.028585

----------------------------
CARTESIAN COORDINATES (A.U.)
----------------------------
  NO LB      ZA    FRAG     MASS         X           Y           Z
   0 N     7.0000    0    14.007    7.065452   -3.410062   -0.163688
   1 C     6.0000    0    12.011    6.013232   -1.241681   -0.278302
   2 C     6.0000    0    12.011    3.190233   -1.050128   -0.433226
   3 N     7.0000    0    14.007    1.905753   -3.256389   -0.691516
   4 N     7.0000    0    14.007    2.069449    1.129646   -0.355874
   5 N     7.0000    0    14.007   -3.419780    1.022867    0.164014
   6 C     6.0000    0    12.011   -4.489503   -1.256375    0.627144
   7 O     8.0000    0    15.999   -3.212235   -3.141780    1.162371
   8 C     6.0000    0    12.011   -7.300514   -1.472209    0.541145
   9 C     6.0000    0    12.011   -8.958756    0.379563    0.072924
  10 H     1.0000    0     1.008    8.990932   -3.205052    0.014804
  11 H     1.0000    0     1.008    7.042288    0.570753   -0.164964
  12 H     1.0000    0     1.008    2.930909   -4.814708   -0.226516
  13 H     1.0000    0     1.008    0.078759   -3.258537    0.008227
  14 H     1.0000    0     1.008    3.367525    2.553408   -0.193965
  15 H     1.0000    0     1.008   -4.392704    2.496404   -0.563250
  16 H     1.0000    0     1.008   -1.453299    1.100249    0.043030
  17 H     1.0000    0     1.008   -7.978952   -3.385986    0.920989
  18 H     1.0000    0     1.008   -8.406651    2.336100   -0.291511
  19 H     1.0000    0     1.008  -10.984331   -0.029396    0.054017

--------------------------------
INTERNAL COORDINATES (ANGSTROEM)
--------------------------------
 N      0   0   0     0.000000000000     0.00000000     0.00000000
 C      1   0   0     1.276862073024     0.00000000     0.00000000
 C      2   1   0     1.499544572291   119.85258944     0.00000000
 N      3   2   1     1.357851452885   116.49178481   353.76162473
 N      3   2   1     1.297677629609   120.90881249   174.66671859
 N      5   3   2     2.918320982240   116.14748219   189.88000786
 C      6   5   3     1.354708375308   116.75712465     8.31994585
 O      7   6   5     1.237939302535   122.05920642    10.00212019
 C      7   6   5     1.492595080383   118.62325829   188.63602446
 C      9   7   6     1.338520774357   127.08314422   359.19309841
 H      1   2   3     1.029023127173   109.96303540   182.56455188
 H      2   1   3     1.104539010607   124.24638669   176.42056763
 H      4   3   2     1.017277389017   113.93428171    17.48494598
 H      4   3   2     1.035289258036   115.62062576   152.80640187
 H      5   3   2     1.023149106112   110.50878933     0.28737867
 H      6   5   3     1.010549051931   117.14655558   207.94287412
 H      6   5   3     1.043388061510     2.20617282   120.38398602
 H      9   7   6     1.093119395215   113.11644478   179.42529647
 H     10   9   7     1.092936136249   123.43109669   359.27011598
 H     10   9   7     1.093562536550   119.96030810   179.67473469

---------------------------
INTERNAL COORDINATES (A.U.)
---------------------------
 N      0   0   0     0.000000000000     0.00000000     0.00000000
 C      1   0   0     2.412919628806     0.00000000     0.00000000
 C      2   1   0     2.833728567239   119.85258944     0.00000000
 N      3   2   1     2.565967376500   116.49178481   353.76162473
 N      3   2   1     2.452255330077   120.90881249   174.66671859
 N      5   3   2     5.514827427310   116.14748219   189.88000786
 C      6   5   3     2.560027820661   116.75712465     8.31994585
 O      7   6   5     2.339366252208   122.05920642    10.00212019
 C      7   6   5     2.820595930763   118.62325829   188.63602446
 C      9   7   6     2.529437688099   127.08314422   359.19309841
 H      1   2   3     1.944571895828   109.96303540   182.56455188
 H      2   1   3     2.087276234279   124.24638669   176.42056763
 H      4   3   2     1.922375667473   113.93428171    17.48494598
 H      4   3   2     1.956413167078   115.62062576   152.80640187
 H      5   3   2     1.933471604719   110.50878933     0.28737867
 H      6   5   3     1.909660953043   117.14655558   207.94287412
 H      6   5   3     1.971717687656     2.20617282   120.38398602
 H      9   7   6     2.065696288635   113.11644478   179.42529647
 H     10   9   7     2.065349979377   123.43109669   359.27011598
 H     10   9   7     2.066533704395   119.96030810   179.67473469



           ************************************************************
           *        Program running with 6 parallel MPI-processes     *
           *              working on a common directory               *
           ************************************************************
 One Electron integrals                  ... done
 Pre-screening matrix                    ... done


           ************************************************************
           *        Program running with 6 parallel MPI-processes     *
           *              working on a common directory               *
           ************************************************************

Diagonalization of the overlap matrix:
Smallest eigenvalue                        ... 2.128e-03
Time for diagonalization                   ...    0.010 sec
Threshold for overlap eigenvalues          ... 1.000e-08
Number of eigenvalues below threshold      ... 0
Time for construction of square roots      ...    0.004 sec
Total time needed                          ...    0.015 sec

-------------------
DFT GRID GENERATION
-------------------

General Integration Accuracy     IntAcc      ...  4.340
Radial Grid Type                 RadialGrid  ... Gauss-Chebyshev
Angular Grid (max. acc.)         AngularGrid ... Lebedev-110
Angular grid pruning method      GridPruning ... 3 (G Style)
Weight generation scheme         WeightScheme... Becke
Basis function cutoff            BFCut       ...    1.0000e-11
Integration weight cutoff        WCut        ...    1.0000e-14
Grids for H and He will be reduced by one unit

# of grid points (after initial pruning)     ...  24744 (   0.0 sec)
# of grid points (after weights+screening)   ...  23077 (   0.0 sec)
nearest neighbour list constructed           ...    0.0 sec
Grid point re-assignment to atoms done       ...    0.0 sec
Grid point division into batches done        ...    0.0 sec
Reduced shell lists constructed in    0.1 sec

Total number of grid points                  ...    23077
Total number of batches                      ...      370
Average number of points per batch           ...       62
Average number of grid points per atom       ...     1154
Average number of shells per batch           ...    56.60 (62.89%)
Average number of basis functions per batch  ...   115.08 (60.57%)
Average number of large shells per batch     ...    41.94 (74.09%)
Average number of large basis fcns per batch ...    86.76 (75.39%)
Maximum spatial batch extension              ...   7.48, 11.41, 19.90 au
Average spatial batch extension              ...   0.34,  0.40,  0.59 au

Time for grid setup =    0.136 sec

--------------------
COSX GRID GENERATION
--------------------

General Integration Accuracy     IntAcc      ...  3.340
Radial Grid Type                 RadialGrid  ... Gauss-Chebyshev
Angular Grid (max. acc.)         AngularGrid ... Lebedev-50
Angular grid pruning method      GridPruning ... 3 (G Style)
Weight generation scheme         WeightScheme... Becke
Basis function cutoff            BFCut       ...    1.0000e-11
Integration weight cutoff        WCut        ...    1.0000e-14
Grids for H and He will be reduced by one unit

# of grid points (after initial pruning)     ...   8944 (   0.0 sec)
# of grid points (after weights+screening)   ...   8411 (   0.0 sec)
nearest neighbour list constructed           ...    0.0 sec
Grid point re-assignment to atoms done       ...    0.0 sec
Grid point division into batches done        ...    0.0 sec
Reduced shell lists constructed in    0.0 sec

Total number of grid points                  ...     8411
Total number of batches                      ...      140
Average number of points per batch           ...       60
Average number of grid points per atom       ...      421
Average number of shells per batch           ...    58.36 (64.84%)
Average number of basis functions per batch  ...   119.16 (62.72%)
Average number of large shells per batch     ...    42.44 (72.72%)
Average number of large basis fcns per batch ...    87.56 (73.48%)
Maximum spatial batch extension              ...   4.82, 10.51, 24.91 au
Average spatial batch extension              ...   0.40,  0.53,  1.13 au

Overlap Fitting                  UseSFitting ... on
Constructing numerical overlap ... done (      0.0 sec)
Inverting numerical overlap    ... done (      0.0 sec)
Obtaining analytic overlap     ... done (      0.0 sec)
Final contraction and storage  ... done (      0.0 sec)


General Integration Accuracy     IntAcc      ...  3.670
Radial Grid Type                 RadialGrid  ... Gauss-Chebyshev
Angular Grid (max. acc.)         AngularGrid ... Lebedev-50
Angular grid pruning method      GridPruning ... 3 (G Style)
Weight generation scheme         WeightScheme... Becke
Basis function cutoff            BFCut       ...    1.0000e-11
Integration weight cutoff        WCut        ...    1.0000e-14
Grids for H and He will be reduced by one unit

# of grid points (after initial pruning)     ...  11444 (   0.0 sec)
# of grid points (after weights+screening)   ...  10735 (   0.0 sec)
nearest neighbour list constructed           ...    0.0 sec
Grid point re-assignment to atoms done       ...    0.0 sec
Grid point division into batches done        ...    0.0 sec
Reduced shell lists constructed in    0.0 sec

Total number of grid points                  ...    10735
Total number of batches                      ...      178
Average number of points per batch           ...       60
Average number of grid points per atom       ...      537
Average number of shells per batch           ...    58.29 (64.77%)
Average number of basis functions per batch  ...   119.13 (62.70%)
Average number of large shells per batch     ...    42.87 (73.55%)
Average number of large basis fcns per batch ...    88.87 (74.60%)
[...]
Grid point re-assignment to atoms done       ...    0.0 sec
Grid point division into batches done        ...    0.0 sec
Reduced shell lists constructed in    0.1 sec

Total number of grid points                  ...    19938
Total number of batches                      ...      320
Average number of points per batch           ...       62
Average number of grid points per atom       ...      997
Average number of shells per batch           ...    57.45 (63.84%)
Average number of basis functions per batch  ...   117.13 (61.65%)
Average number of large shells per batch     ...    42.58 (74.11%)
Average number of large basis fcns per batch ...    87.93 (75.07%)
Maximum spatial batch extension              ...   6.48,  9.62, 19.50 au
Average spatial batch extension              ...   0.37,  0.41,  0.66 au

Overlap Fitting                  UseSFitting ... on
Constructing numerical overlap ... done (      0.0 sec)
Inverting numerical overlap    ... done (      0.0 sec)
Obtaining analytic overlap     ... done (      0.0 sec)
Final contraction and storage  ... done (      0.0 sec)

Time for X-Grid setup             =    0.388 sec
--------------
SCF ITERATIONS
--------------
ITER       Energy         Delta-E        Max-DP      RMS-DP      [F,P]     Damp
               ***  Starting incremental Fock matrix formation  ***
                      *** Initiating the SOSCF procedure ***
                      *** Re-Reading the Fockian *** 
                      *** Removing any level shift *** 
ITER      Energy       Delta-E        Grad      Rot      Max-DP    RMS-DP
  0   -490.51817912 -490.5181791208  0.002515  0.002515  0.006848  0.000161
               *** Restarting incremental Fock matrix formation ***
  1   -490.51858779  -0.0004086654  0.001176  0.003401  0.003442  0.000076
  2   -490.51863584  -0.0000480561  0.000464  0.001822  0.002518  0.000055
  3   -490.51862385   0.0000119971  0.000829  0.001170  0.001687  0.000036
  4   -490.51864189  -0.0000180439  0.000080  0.000297  0.000333  0.000007
  5   -490.51864170   0.0000001856  0.000168  0.000219  0.000261  0.000004
  6   -490.51864201  -0.0000003060  0.000018  0.000041  0.000084  0.000001
  7   -490.51864199   0.0000000149  0.000023  0.000022  0.000045  0.000001
  8   -490.51864201  -0.0000000199  0.000003  0.000012  0.000012  0.000000
  9   -490.51864201  -0.0000000003  0.000005  0.000009  0.000010  0.000000
                  ***Gradient check signals convergence***
              ***Rediagonalizing the Fockian in SOSCF/NRSCF***

               *****************************************************
               *                     SUCCESS                       *
               *           SCF CONVERGED AFTER  10 CYCLES          *
               *****************************************************

Setting up the final grid:

General Integration Accuracy     IntAcc      ...  4.670
Radial Grid Type                 RadialGrid  ... Gauss-Chebyshev
Angular Grid (max. acc.)         AngularGrid ... Lebedev-302
Angular grid pruning method      GridPruning ... 3 (G Style)
Weight generation scheme         WeightScheme... Becke
Basis function cutoff            BFCut       ...    1.0000e-11
Integration weight cutoff        WCut        ...    1.0000e-14
Grids for H and He will be reduced by one unit

# of grid points (after initial pruning)     ...  96060 (   0.0 sec)
# of grid points (after weights+screening)   ...  88279 (   0.1 sec)
nearest neighbour list constructed           ...    0.0 sec
Grid point re-assignment to atoms done       ...    0.0 sec
Grid point division into batches done        ...    0.4 sec
Reduced shell lists constructed in    0.5 sec

Total number of grid points                  ...    88279
Total number of batches                      ...     1388
Average number of points per batch           ...       63
Average number of grid points per atom       ...     4414
Average number of shells per batch           ...    54.48 (60.53%)
Average number of basis functions per batch  ...   110.73 (58.28%)
Average number of large shells per batch     ...    39.77 (73.00%)
Average number of large basis fcns per batch ...    81.64 (73.73%)
Maximum spatial batch extension              ...   8.38, 10.61, 22.89 au
Average spatial batch extension              ...   0.25,  0.27,  0.34 au

Final grid set up in    0.8 sec
Final integration                            ... done (   0.3 sec)
Change in XC energy                          ...    -0.001168826
Integrated number of electrons               ...    75.999833760
Previous integrated no of electrons          ...    75.996573833
Old exchange energy                            =    -12.816583842 Eh
New exchange energy                            =    -12.816347285 Eh
Exchange energy change after final integration =      0.000236557 Eh
Total energy after final integration           =   -490.519574283 Eh
Final COS-X integration done in                =     2.661 sec

----------------
TOTAL SCF ENERGY
----------------

Total Energy       :         -490.51957428 Eh          -13347.71620 eV

Components:
Nuclear Repulsion  :          487.60424882 Eh           13268.38616 eV
Electronic Energy  :         -978.12382310 Eh          -26616.10236 eV
One Electron Energy:        -1633.27619327 Eh          -44443.70469 eV
Two Electron Energy:          655.15237016 Eh           17827.60233 eV

Virial components:
Potential Energy   :         -978.02099376 Eh          -26613.30423 eV
Kinetic Energy     :          487.50141948 Eh           13265.58803 eV
Virial Ratio       :            2.00619107


DFT components:
N(Alpha)           :       37.999916880204 electrons
N(Beta)            :       37.999916880204 electrons
N(Total)           :       75.999833760408 electrons
E(X)               :      -50.963859162077 Eh       
E(C)               :       -3.039546476926 Eh       
E(XC)              :      -54.003405639003 Eh       

---------------
SCF CONVERGENCE
---------------

  Last Energy change         ...    1.0596e-09  Tolerance :   1.0000e-08
  Last MAX-Density change    ...    7.2066e-14  Tolerance :   1.0000e-07
  Last RMS-Density change    ...    6.1463e-16  Tolerance :   5.0000e-09
  Last Orbital Gradient      ...    5.9678e-07  Tolerance :   1.0000e-05
  Last Orbital Rotation      ...    1.8540e-06  Tolerance :   1.0000e-05

             **** THE GBW FILE WAS UPDATED (AT-v/e/frag_12_c00001.gbw) ****
             **** DENSITY FILE WAS UPDATED (AT-v/e/frag_12_c00001.scfp.tmp) ****
             **** ENERGY FILE WAS UPDATED (AT-v/e/frag_12_c00001.en.tmp) ****
----------------
ORBITAL ENERGIES
----------------

  NO   OCC          E(Eh)            E(eV) 
   0   2.0000     -19.096038      -519.6296 
   1   2.0000     -14.339658      -390.2019 
   2   2.0000     -14.323368      -389.7586 
   3   2.0000     -14.314905      -389.5284 
   4   2.0000     -14.296743      -389.0342 
   5   2.0000     -10.277813      -279.6735 
   6   2.0000     -10.255042      -279.0539 
   7   2.0000     -10.249172      -278.8942 
   8   2.0000     -10.200774      -277.5772 
   9   2.0000     -10.195720      -277.4397 
  10   2.0000      -1.018402       -27.7121 
  11   2.0000      -0.949642       -25.8411 
  12   2.0000      -0.903059       -24.5735 
  13   2.0000      -0.884640       -24.0723 
  14   2.0000      -0.841500       -22.8984 
  15   2.0000      -0.776425       -21.1276 
  16   2.0000      -0.660591       -17.9756 
  17   2.0000      -0.628986       -17.1156 
  18   2.0000      -0.566008       -15.4018 
  19   2.0000      -0.555815       -15.1245 
  20   2.0000      -0.530656       -14.4399 
  21   2.0000      -0.522432       -14.2161 
  22   2.0000      -0.497705       -13.5432 
  23   2.0000      -0.468727       -12.7547 
  24   2.0000      -0.450470       -12.2579 
  25   2.0000      -0.443937       -12.0801 
  26   2.0000      -0.424501       -11.5513 
  27   2.0000      -0.398381       -10.8405 
  28   2.0000      -0.395064       -10.7502 
  29   2.0000      -0.392002       -10.6669 
  30   2.0000      -0.369084       -10.0433 
  31   2.0000      -0.318786        -8.6746 
  32   2.0000      -0.295839        -8.0502 
  33   2.0000      -0.277198        -7.5429 
  34   2.0000      -0.271066        -7.3761 
  35   2.0000      -0.251994        -6.8571 
  36   2.0000      -0.244284        -6.6473 
  37   2.0000      -0.228510        -6.2181 
  38   0.0000      -0.048007        -1.3063 
  39   0.0000      -0.032514        -0.8847 
  40   0.0000       0.053426         1.4538 
  41   0.0000       0.063984         1.7411 
  42   0.0000       0.086741         2.3603 
  43   0.0000       0.089004         2.4219 
  44   0.0000       0.092318         2.5121 
  45   0.0000       0.102695         2.7945 
  46   0.0000       0.116480         3.1696 
  47   0.0000       0.133285         3.6269 
  48   0.0000       0.149506         4.0683 
  49   0.0000       0.168558         4.5867 
  50   0.0000       0.218828         5.9546 
  51   0.0000       0.220527         6.0008 
  52   0.0000       0.261320         7.1109 
  53   0.0000       0.278272         7.5722 
  54   0.0000       0.308513         8.3951 
  55   0.0000       0.328220         8.9313 
  56   0.0000       0.335871         9.1395 
  57   0.0000       0.367777        10.0077 
  58   0.0000       0.381450        10.3798 
  59   0.0000       0.403411        10.9774 
  60   0.0000       0.457183        12.4406 
  61   0.0000       0.466562        12.6958 
  62   0.0000       0.472502        12.8574 
  63   0.0000       0.475786        12.9468 
  64   0.0000       0.479130        13.0378 
  65   0.0000       0.503265        13.6945 
  66   0.0000       0.510725        13.8975 
  67   0.0000       0.527677        14.3588 
  68   0.0000       0.536644        14.6028 
  69   0.0000       0.542064        14.7503 
  70   0.0000       0.551505        15.0072 
  71   0.0000       0.564427        15.3588 
  72   0.0000       0.574641        15.6368 
  73   0.0000       0.578415        15.7395 
  74   0.0000       0.599917        16.3246 
  75   0.0000       0.623960        16.9788 
  76   0.0000       0.630809        17.1652 
  77   0.0000       0.650062        17.6891 
  78   0.0000       0.654644        17.8138 
  79   0.0000       0.678658        18.4672 
  80   0.0000       0.694299        18.8928 
  81   0.0000       0.717600        19.5269 
  82   0.0000       0.724955        19.7270 
  83   0.0000       0.738299        20.0901 
  84   0.0000       0.747222        20.3329 
  85   0.0000       0.761781        20.7291 
  86   0.0000       0.786756        21.4087 
  87   0.0000       0.802930        21.8488 
  88   0.0000       0.813138        22.1266 
  89   0.0000       0.844673        22.9847 
  90   0.0000       0.853471        23.2241 
  91   0.0000       0.878735        23.9116 
  92   0.0000       0.881902        23.9978 
  93   0.0000       0.917494        24.9663 
  94   0.0000       0.928973        25.2787 
  95   0.0000       0.938831        25.5469 
  96   0.0000       0.965524        26.2732 
  97   0.0000       0.974936        26.5294 
  98   0.0000       0.985036        26.8042 
  99   0.0000       1.005136        27.3511 
 100   0.0000       1.018847        27.7242 
 101   0.0000       1.033692        28.1282 
 102   0.0000       1.045650        28.4536 
 103   0.0000       1.078447        29.3460 
 104   0.0000       1.091536        29.7022 
 105   0.0000       1.112150        30.2631 
 106   0.0000       1.120662        30.4948 
 107   0.0000       1.154594        31.4181 
 108   0.0000       1.181537        32.1513 
 109   0.0000       1.196297        32.5529 
 110   0.0000       1.219720        33.1903 
 111   0.0000       1.269796        34.5529 
 112   0.0000       1.275166        34.6990 
 113   0.0000       1.293424        35.1959 
 114   0.0000       1.307303        35.5735 
 115   0.0000       1.332975        36.2721 
 116   0.0000       1.347397        36.6645 
 117   0.0000       1.375042        37.4168 
 118   0.0000       1.380467        37.5644 
 119   0.0000       1.453952        39.5640 
 120   0.0000       1.468278        39.9539 
 121   0.0000       1.489673        40.5361 
 122   0.0000       1.501613        40.8610 
 123   0.0000       1.511098        41.1191 
 124   0.0000       1.527138        41.5555 
 125   0.0000       1.529345        41.6156 
 126   0.0000       1.543468        41.9999 
 127   0.0000       1.570022        42.7225 
 128   0.0000       1.584916        43.1278 
 129   0.0000       1.606745        43.7218 
 130   0.0000       1.614673        43.9375 
 131   0.0000       1.645933        44.7881 
 132   0.0000       1.671043        45.4714 
 133   0.0000       1.680617        45.7319 
 134   0.0000       1.693736        46.0889 
 135   0.0000       1.711659        46.5766 
 136   0.0000       1.718637        46.7665 
 137   0.0000       1.729577        47.0642 
 138   0.0000       1.741095        47.3776 
 139   0.0000       1.785792        48.5939 
 140   0.0000       1.805479        49.1296 
 141   0.0000       1.834980        49.9323 
 142   0.0000       1.869454        50.8704 
 143   0.0000       1.874681        51.0127 
 144   0.0000       1.896923        51.6179 
 145   0.0000       1.912606        52.0447 
 146   0.0000       1.948311        53.0162 
 147   0.0000       1.973160        53.6924 
 148   0.0000       1.984134        53.9910 
 149   0.0000       2.032176        55.2983 
 150   0.0000       2.068303        56.2814 
 151   0.0000       2.079183        56.5774 
 152   0.0000       2.093424        56.9650 
 153   0.0000       2.127203        57.8841 
 154   0.0000       2.145533        58.3829 
 155   0.0000       2.180436        59.3327 
 156   0.0000       2.191488        59.6334 
 157   0.0000       2.207003        60.0556 
 158   0.0000       2.218370        60.3649 
 159   0.0000       2.246894        61.1411 
 160   0.0000       2.285064        62.1798 
 161   0.0000       2.295802        62.4720 
 162   0.0000       2.314896        62.9915 
 163   0.0000       2.330768        63.4234 
 164   0.0000       2.367003        64.4094 
 165   0.0000       2.382204        64.8231 
 166   0.0000       2.422302        65.9142 
 167   0.0000       2.423437        65.9451 
 168   0.0000       2.508255        68.2531 
 169   0.0000       2.515684        68.4553 
 170   0.0000       2.555473        69.5380 
 171   0.0000       2.606266        70.9201 
 172   0.0000       2.618820        71.2617 
 173   0.0000       2.639156        71.8151 
 174   0.0000       2.653550        72.2068 
 175   0.0000       2.695486        73.3479 
 176   0.0000       2.750188        74.8364 
 177   0.0000       2.760324        75.1122 
 178   0.0000       2.797685        76.1289 
 179   0.0000       2.818528        76.6960 
 180   0.0000       2.909529        79.1723 
 181   0.0000       2.937124        79.9232 
 182   0.0000       2.971635        80.8623 
 183   0.0000       3.033248        82.5389 
 184   0.0000       3.099307        84.3364 
 185   0.0000       3.188539        86.7646 
 186   0.0000       3.290859        89.5488 
 187   0.0000       3.353944        91.2654 
 188   0.0000       3.455161        94.0197 
 189   0.0000       3.540597        96.3445 
-------
TIMINGS
-------

Total SCF time: 0 days 0 hours 0 min 20 sec 

Total time                  ....      20.841 sec
Sum of individual times     ....      20.757 sec  ( 99.6%)

Fock matrix formation       ....      19.288 sec  ( 92.6%)
  Split-RI-J                ....       3.046 sec  ( 15.8% of F)
  Chain of spheres X        ....      14.928 sec  ( 77.4% of F)
  COS-X 1 center corr.      ....       0.000 sec  (  0.0% of F)
  XC integration            ....       1.261 sec  (  6.5% of F)
    Basis function eval.    ....       0.480 sec  ( 38.1% of XC)
    Density eval.           ....       0.207 sec  ( 16.4% of XC)
    XC-Functional eval.     ....       0.058 sec  (  4.6% of XC)
    XC-Potential eval.      ....       0.381 sec  ( 30.2% of XC)
Diagonalization             ....       0.011 sec  (  0.1%)
Density matrix formation    ....       0.016 sec  (  0.1%)
Population analysis         ....       0.000 sec  (  0.0%)
Initial guess               ....       0.009 sec  (  0.0%)
Orbital Transformation      ....       0.000 sec  (  0.0%)
Orbital Orthonormalization  ....       0.007 sec  (  0.0%)
DIIS solution               ....       0.002 sec  (  0.0%)
SOSCF solution              ....       0.150 sec  (  0.7%)
Grid generation             ....       1.280 sec  (  6.1%)


-------------------------------------------------------------------------------
                          DFT DISPERSION CORRECTION                            
                                                                               
                              DFTD3 V3.1  Rev 1                                
                          USING Becke-Johnson damping                          
-------------------------------------------------------------------------------
The B3LYP functional is recognized
Active option DFTDOPT                   ...         4   

molecular C6(AA) [au] = 3967.889781 


            DFT-D V3
 parameters
 s6 scaling factor         :     1.0000 
 a1 scaling factor         :     0.3981 
 s8 scaling factor         :     1.9889 
 a2 scaling factor         :     4.4211 
 ad hoc parameters k1-k3   :    16.0000     1.3333    -4.0000 

 Edisp/kcal,au: -18.003524932278  -0.028690440154 
 E6   /kcal   :  -8.809866776 
 E8   /kcal   :  -9.193658157 
 % E8         :  51.065878438 

-------------------------   ----------------
Dispersion correction           -0.028690440
-------------------------   ----------------


-------------------------   --------------------
FINAL SINGLE POINT ENERGY      -490.548264723446
-------------------------   --------------------

                                *** OPTIMIZATION RUN DONE ***

                            ***************************************
                            *     ORCA property calculations      *
                            ***************************************

                                    ---------------------
                                    Active property flags
                                    ---------------------
   (+) Dipole Moment


------------------------------------------------------------------------------
                       ORCA ELECTRIC PROPERTIES CALCULATION
------------------------------------------------------------------------------

Dipole Moment Calculation                       ... on
Quadrupole Moment Calculation                   ... off
Polarizability Calculation                      ... off
GBWName                                         ... AT-v/e/frag_12_c00001.gbw
Electron density file                           ... AT-v/e/frag_12_c00001.scfp.tmp
The origin for moment calculation is the CENTER OF MASS  = (-0.663745, -1.249095  0.016298)

-------------
DIPOLE MOMENT
-------------
                                X             Y             Z
Electronic contribution:      2.55547      -2.37476      -0.01475
Nuclear contribution   :     -2.05555       3.47730      -0.03208
                        -----------------------------------------
Total Dipole Moment    :      0.49992       1.10254      -0.04683
                        -----------------------------------------
Magnitude (a.u.)       :      1.21149
Magnitude (Debye)      :      3.07937


Timings for individual modules:

Sum of individual times         ...      215.921 sec (=   3.599 min)
GTO integral calculation        ...        5.894 sec (=   0.098 min)   2.7 %
SCF iterations                  ...      171.482 sec (=   2.858 min)  79.4 %
SCF Gradient evaluation         ...       37.914 sec (=   0.632 min)  17.6 %
Geometry relaxation             ...        0.631 sec (=   0.011 min)   0.3 %
                             ****ORCA TERMINATED NORMALLY****
TOTAL RUN TIME: 0 days 0 hours 3 minutes 37 seconds 853 msec
