
                                 *****************
                                 * O   R   C   A *
                                 *****************

           --- An Ab Initio, DFT and Semiempirical electronic structure package ---

                  #######################################################
                  #                        -***-                        #
                  #  Department of molecular theory and spectroscopy    #
                  #              Directorship: Frank Neese              #
                  # Max Planck Institute for Chemical Energy Conversion #
                  #                  D-45470 Muelheim/Ruhr              #
                  #                       Germany                       #
                  #                                                     #
                  #                  All rights reserved                #
                  #                        -***-                        #
                  #######################################################


                         Program Version 4.0.1.2 - RELEASE -


 With contributions from (in alphabetic order):
   Daniel Aravena         : Magnetic Properties
   Michael Atanasov       : Ab Initio Ligand Field Theory
   Ute Becker             : Parallelization
   Martin Brehm           : Molecular dynamics
   Dmytro Bykov           : SCF Hessian
   Vijay G. Chilkuri      : MRCI spin determinant printing
   Dipayan Datta          : RHF DLPNO-CCSD density
   Achintya Kumar Dutta   : EOM-CC, STEOM-CC
   Dmitry Ganyushin       : Spin-Orbit,Spin-Spin,Magnetic field MRCI
   Yang Guo               : DLPNO-NEVPT2, CIM, IAO-localization
   Andreas Hansen         : Spin unrestricted coupled pair/coupled cluster methods
   Lee Huntington         : MR-EOM, pCC
   Robert Izsak           : Overlap fitted RIJCOSX, COSX-SCS-MP3, EOM
   Christian Kollmar      : KDIIS, OOCD, Brueckner-CCSD(T), CCSD density
   Simone Kossmann        : Meta GGA functionals, TD-DFT gradient, OOMP2, MP2 Hessian
   Martin Krupicka        : AUTO-CI
   Dagmar Lenk            : GEPOL surface
   Dimitrios Liakos       : Extrapolation schemes; parallel MDCI
   Dimitrios Manganas     : ROCIS; embedding schemes
   Dimitrios Pantazis     : SARC Basis sets
   Taras Petrenko         : DFT Hessian,TD-DFT gradient, ASA, ECA, R-Raman, ABS, FL, XAS/XES, NRVS
   Peter Pinski           : DLPNO-MP2
   Christoph Reimann      : Effective Core Potentials
   Marius Retegan         : Local ZFS, SOC
   Christoph Riplinger    : Optimizer, TS searches, QM/MM, DLPNO-CCSD(T), (RO)-DLPNO pert. Triples
   Tobias Risthaus        : Range-separated hybrids, TD-DFT gradient, RPA, STAB
   Michael Roemelt        : Restricted open shell CIS
   Masaaki Saitow         : Open-shell DLPNO
   Barbara Sandhoefer     : DKH picture change effects
   Kantharuban Sivalingam : CASSCF convergence, NEVPT2, FIC-MRCI
   Georgi Stoychev        : AutoAux
   Boris Wezisla          : Elementary symmetry handling
   Frank Wennmohs         : Technical directorship


 We gratefully acknowledge several colleagues who have allowed us to
 interface, adapt or use parts of their codes:
   Stefan Grimme, W. Hujo, H. Kruse,             : VdW corrections, initial TS optimization,
                  C. Bannwarth                     DFT functionals, gCP, sTDA/sTD-DF
   Ed Valeev                                     : LibInt (2-el integral package), F12 methods
   Garnet Chan, S. Sharma, J. Yang, R. Olivares  : DMRG
   Ulf Ekstrom                                   : XCFun DFT Library
   Mihaly Kallay                                 : mrcc  (arbitrary order and MRCC methods)
   Andreas Klamt, Michael Diedenhofen            : otool_cosmo (COSMO solvation model)
   Jiri Pittner, Ondrej Demel                    : Mk-CCSD
   Frank Weinhold                                : gennbo (NPA and NBO analysis)
   Christopher J. Cramer and Donald G. Truhlar   : smd solvation model


 Your calculation uses the libint2 library for the computation of 2-el integrals
 For citations please refer to: http://libint.valeyev.net

 This ORCA versions uses:
   CBLAS   interface :  Fast vector & matrix operations
   LAPACKE interface :  Fast linear algebra routines
   SCALAPACK package :  Parallel linear algebra routines


Your calculation utilizes the atom-pairwise dispersion correction
with the Becke-Johnson damping scheme (D3BJ)
Cite in your paper:
S.Grimme, S.Ehrlich, L.Goerigk, J Comput Chem, (2011), 32, 1456–1465 
S.Grimme, J.Antony, S.Ehrlich and H.Krieg, J.Chem.Phys., 132, (2010), 154104 
   

Your calculation utilizes the basis: cc-pVDZ 
       H, B-Ne : Obtained from the ccRepo (grant-hill.group.shef.ac.uk/ccrepo) Feb. 2017
                 T. H. Dunning, Jr., J. Chem. Phys. 90, 1007 (1989)
            He : Obtained from the ccRepo (grant-hill.group.shef.ac.uk/ccrepo) Feb. 2017
                 D. E. Woon, T. H. Dunning, Jr., J. Chem. Phys. 100, 2975 (1994)
  Li-Be, Na-Mg : Obtained from the ccRepo (grant-hill.group.shef.ac.uk/ccrepo) Feb. 2017
                 B. P. Prascher, D. E. Woon, K. A. Peterson, T. H. Dunning, Jr., A. K. Wilson, Theor. Chem. Acc. 128, 69 (2011)
         Al-Ar : Obtained from the ccRepo (grant-hill.group.shef.ac.uk/ccrepo) Feb. 2017
                 D. E. Woon, T. H. Dunning, Jr., J. Chem. Phys. 98, 1358 (1993)
            Ca : Obtained from the Peterson Research Group Website (tyr0.chem.wsu.edu/~kipeters) Feb. 2017
                 J. Koput, K. A. Peterson, J. Phys. Chem. 106, 9595 (2002)
         Sc-Zn : Obtained from the ccRepo (grant-hill.group.shef.ac.uk/ccrepo) Feb. 2017
                 N. B. Balabanov, K. A. Peterson, J. Chem. Phys. 123, 064107 (2005)
                 N. B. Balabanov, K. A. Peterson, J. Chem. Phys. 125, 074110 (2006)
         Ga-Kr : Obtained from the ccRepo (grant-hill.group.shef.ac.uk/ccrepo) Feb. 2017
                 A. K. Wilson, D. E. Woon, K. A. Peterson, T. H. Dunning, Jr., J. Chem. Phys. 110, 7667 (1999)

Your calculation utilizes the auxiliary basis: def2/J
   F. Weigend, Phys. Chem. Chem. Phys. 8, 1057 (2006).

================================================================================
                                        WARNINGS
                       Please study these warnings very carefully!
================================================================================

Warning: TCutStore was < 0. Adjusted to Thresh (uncritical)

WARNING: Geometry Optimization
  ===> : Switching off AutoStart
         For restart on a previous wavefunction, please use MOREAD

INFO   : the flag for use of LIBINT has been found!

================================================================================
                                       INPUT FILE
================================================================================
NAME = g8raf/frag_27_c00001.com
|  1> %pal nprocs 6 end
|  2> %maxcore 1000
|  3> ! b3lyp TIGHTSCF nopop D3BJ
|  4> ! cc-pvdz def2/J RIJCOSX
|  5> ! Opt
|  6> 
|  7> %geom
|  8> maxiter 60
|  9> TolE 1e-4
| 10> TolRMSG 2e-3
| 11> TolMaxG 3e-3
| 12> TolRMSD 2e-2
| 13> TolMaxD 3e-2
| 14> end
| 15> 
| 16> *xyz 0 1
| 17> C -2.4612 -0.8309 -0.0001
| 18> O -1.8258 -1.8781 0.0001
| 19> C -3.947 -0.7973 0.0011
| 20> C -4.659 -2.1113 0.003
| 21> C -4.559 0.3961 0.0005
| 22> H -1.9562 0.1498 -0.0012
| 23> H -4.3936 -2.6932 -0.8857
| 24> H -5.7467 -1.9834 0.0038
| 25> H -4.3921 -2.6915 0.8924
| 26> H -4.0114 1.3337 -0.0009
| 27> H -5.6432 0.4663 0.0013
| 28> *
| 29> 
| 30> 
| 31>                          ****END OF INPUT****
================================================================================

                       *****************************
                       * Geometry Optimization Run *
                       *****************************

Geometry optimization settings:
Update method            Update   .... BFGS
Choice of coordinates    CoordSys .... Redundant Internals
Initial Hessian          InHess   .... Almoef's Model

Convergence Tolerances:
Energy Change            TolE     ....  1.0000e-04 Eh
Max. Gradient            TolMAXG  ....  3.0000e-03 Eh/bohr
RMS Gradient             TolRMSG  ....  2.0000e-03 Eh/bohr
Max. Displacement        TolMAXD  ....  3.0000e-02 bohr
RMS Displacement         TolRMSD  ....  2.0000e-02 bohr

------------------------------------------------------------------------------
                        ORCA OPTIMIZATION COORDINATE SETUP
------------------------------------------------------------------------------

The optimization will be done in new redundant internal coordinates
Making redundant internal coordinates   ...  (new redundants) done
Evaluating the initial hessian          ...  (Almloef) done
Evaluating the coordinates              ...  done
Calculating the B-matrix                .... done
Calculating the G-matrix                .... done
Diagonalizing the G-matrix              .... done
The first mode is                       ....   12
The number of degrees of freedom        ....   27

    -----------------------------------------------------------------
                    Redundant Internal Coordinates


    -----------------------------------------------------------------
         Definition                    Initial Value    Approx d2E/dq
    -----------------------------------------------------------------
      1. B(O   1,C   0)                  1.2249         1.026347   
      2. B(C   2,C   0)                  1.4862         0.438823   
      3. B(C   3,C   2)                  1.4945         0.425607   
      4. B(C   4,C   2)                  1.3412         0.747545   
      5. B(H   5,C   0)                  1.1031         0.343198   
      6. B(H   6,C   3)                  1.0949         0.353660   
      7. B(H   7,C   3)                  1.0952         0.353294   
      8. B(H   8,C   3)                  1.0949         0.353620   
      9. B(H   9,C   4)                  1.0858         0.365699   
     10. B(H  10,C   4)                  1.0865         0.364799   
     11. A(C   2,C   0,H   5)          115.9502         0.330410   
     12. A(O   1,C   0,C   2)          122.5432         0.443720   
     13. A(O   1,C   0,H   5)          121.5066         0.379192   
     14. A(C   0,C   2,C   4)          118.4451         0.421903   
     15. A(C   0,C   2,C   3)          117.1559         0.382055   
     16. A(C   3,C   2,C   4)          124.3990         0.419606   
     17. A(C   2,C   3,H   6)          110.5337         0.330380   
     18. A(H   7,C   3,H   8)          107.6606         0.289145   
     19. A(H   6,C   3,H   8)          108.5781         0.289192   
     20. A(C   2,C   3,H   8)          110.5359         0.330373   
     21. A(H   6,C   3,H   7)          107.6615         0.289150   
     22. A(C   2,C   3,H   7)          111.7449         0.330323   
     23. A(H   9,C   4,H  10)          116.5822         0.292141   
     24. A(C   2,C   4,H  10)          120.8543         0.365132   
     25. A(C   2,C   4,H   9)          122.5635         0.365287   
     26. D(C   4,C   2,C   0,H   5)      0.0132         0.013141   
     27. D(C   4,C   2,C   0,O   1)   -179.9864         0.013141   
     28. D(C   3,C   2,C   0,H   5)   -179.9829         0.013141   
     29. D(C   3,C   2,C   0,O   1)      0.0175         0.013141   
     30. D(H   7,C   3,C   2,C   0)    179.9986         0.013385   
     31. D(H   6,C   3,C   2,C   4)    119.8831         0.013385   
     32. D(H   8,C   3,C   2,C   4)   -119.8779         0.013385   
     33. D(H   8,C   3,C   2,C   0)     60.1179         0.013385   
     34. D(H   7,C   3,C   2,C   4)      0.0028         0.013385   
     35. D(H   6,C   3,C   2,C   0)    -60.1210         0.013385   
     36. D(H  10,C   4,C   2,C   3)     -0.0063         0.039828   
     37. D(H  10,C   4,C   2,C   0)    179.9980         0.039828   
     38. D(H   9,C   4,C   2,C   3)   -179.9994         0.039828   
     39. D(H   9,C   4,C   2,C   0)      0.0048         0.039828   
    -----------------------------------------------------------------

Number of atoms                         .... 11
Number of degrees of freedom            .... 39

         *************************************************************
         *                GEOMETRY OPTIMIZATION CYCLE   1            *
         *************************************************************
---------------------------------
CARTESIAN COORDINATES (ANGSTROEM)
---------------------------------
  C     -2.461200   -0.830900   -0.000100
  O     -1.825800   -1.878100    0.000100
  C     -3.947000   -0.797300    0.001100
  C     -4.659000   -2.111300    0.003000
  C     -4.559000    0.396100    0.000500
  H     -1.956200    0.149800   -0.001200
  H     -4.393600   -2.693200   -0.885700
  H     -5.746700   -1.983400    0.003800
  H     -4.392100   -2.691500    0.892400
  H     -4.011400    1.333700   -0.000900
  H     -5.643200    0.466300    0.001300

----------------------------
CARTESIAN COORDINATES (A.U.)
----------------------------
  NO LB      ZA    FRAG     MASS         X           Y           Z
   0 C     6.0000    0    12.011   -4.650994   -1.570173   -0.000189
   1 O     8.0000    0    15.999   -3.450262   -3.549095    0.000189
   2 C     6.0000    0    12.011   -7.458749   -1.506679    0.002079
   3 C     6.0000    0    12.011   -8.804234   -3.989779    0.005669
   4 C     6.0000    0    12.011   -8.615261    0.748521    0.000945
   5 H     1.0000    0     1.008   -3.696682    0.283081   -0.002268
   6 H     1.0000    0     1.008   -8.302701   -5.089410   -1.673730
   7 H     1.0000    0     1.008  -10.859689   -3.748083    0.007181
   8 H     1.0000    0     1.008   -8.299866   -5.086198    1.686392
   9 H     1.0000    0     1.008   -7.580447    2.520328   -0.001701
  10 H     1.0000    0     1.008  -10.664103    0.881179    0.002457

--------------------------------
INTERNAL COORDINATES (ANGSTROEM)
--------------------------------
 C      0   0   0     0.000000000000     0.00000000     0.00000000
 O      1   0   0     1.224892256486     0.00000000     0.00000000
 C      1   2   0     1.486180352447   122.54318739     0.00000000
 C      3   1   2     1.494504469716   117.15591836     0.00000000
 C      3   1   2     1.341174082660   118.44511547   180.01359362
 H      1   2   3     1.103085989395   121.50658110   180.00043085
 H      4   3   1     1.094912078662   110.53368731   299.87895616
 H      4   3   1     1.095194201957   111.74491398   179.99862420
 H      4   3   1     1.094942925453   110.53594635    60.11794581
 H      5   3   1     1.085799926322   122.56349951     0.00000000
 H      5   3   1     1.086470579445   120.85427445   179.99795622

---------------------------
INTERNAL COORDINATES (A.U.)
---------------------------
 C      0   0   0     0.000000000000     0.00000000     0.00000000
 O      1   0   0     2.314710908320     0.00000000     0.00000000
 C      1   2   0     2.808473851740   122.54318739     0.00000000
 C      3   1   2     2.824204153684   117.15591836     0.00000000
 C      3   1   2     2.534451714141   118.44511547   180.01359362
 H      1   2   3     2.084530422123   121.50658110   180.00043085
 H      4   3   1     2.069083969394   110.53368731   299.87895616
 H      4   3   1     2.069617105157   111.74491398   179.99862420
 H      4   3   1     2.069142261381   110.53594635    60.11794581
 H      5   3   1     2.051864496980   122.56349951     0.00000000
 H      5   3   1     2.053131847714   120.85427445   179.99795622

---------------------
BASIS SET INFORMATION
---------------------
There are 3 groups of distinct atoms

 Group   1 Type C   : 17s4p1d contracted to 3s2p1d pattern {881/31/1}
 Group   2 Type O   : 17s4p1d contracted to 3s2p1d pattern {881/31/1}
 Group   3 Type H   : 4s1p contracted to 2s1p pattern {31/1}

Atom   0C    basis set group =>   1
Atom   1O    basis set group =>   2
Atom   2C    basis set group =>   1
Atom   3C    basis set group =>   1
Atom   4C    basis set group =>   1
Atom   5H    basis set group =>   3
Atom   6H    basis set group =>   3
Atom   7H    basis set group =>   3
Atom   8H    basis set group =>   3
Atom   9H    basis set group =>   3
Atom  10H    basis set group =>   3
-------------------------------
AUXILIARY BASIS SET INFORMATION
-------------------------------
There are 3 groups of distinct atoms

 Group   1 Type C   : 12s5p4d2f1g contracted to 6s4p3d1f1g pattern {711111/2111/211/2/1}
 Group   2 Type O   : 12s5p4d2f1g contracted to 6s4p3d1f1g pattern {711111/2111/211/2/1}
 Group   3 Type H   : 5s2p1d contracted to 3s1p1d pattern {311/2/1}

Atom   0C    basis set group =>   1
Atom   1O    basis set group =>   2
Atom   2C    basis set group =>   1
Atom   3C    basis set group =>   1
Atom   4C    basis set group =>   1
Atom   5H    basis set group =>   3
Atom   6H    basis set group =>   3
Atom   7H    basis set group =>   3
Atom   8H    basis set group =>   3
Atom   9H    basis set group =>   3
Atom  10H    basis set group =>   3


           ************************************************************
           *        Program running with 6 parallel MPI-processes     *
           *              working on a common directory               *
           ************************************************************
------------------------------------------------------------------------------
                           ORCA GTO INTEGRAL CALCULATION
                           -- RI-GTO INTEGRALS CHOSEN --
------------------------------------------------------------------------------

                         BASIS SET STATISTICS AND STARTUP INFO

Gaussian basis set:
 # of primitive gaussian shells          ...  140
 # of primitive gaussian functions       ...  212
 # of contracted shells                  ...   48
 # of contracted basis functions         ...  100
 Highest angular momentum                ...    2
 Maximum contraction depth               ...    8
Auxiliary gaussian basis set:
 # of primitive gaussian shells          ...  168
 # of primitive gaussian functions       ...  446
 # of contracted shells                  ...  105
 # of contracted aux-basis functions     ...  311
 Highest angular momentum                ...    4
 Maximum contraction depth               ...    7
Ratio of auxiliary to basis functions    ...  3.11
Integral package used                  ... LIBINT
 One Electron integrals                  ... done
 Ordering auxiliary basis shells         ... done
 Integral threshhold             Thresh  ...  2.500e-11
 Primitive cut-off               TCut    ...  2.500e-12
 Pre-screening matrix                    ... done
 Shell pair data                         ... 
 Ordering of the shell pairs             ... done (   0.000 sec) 1174 of 1176 pairs
 Determination of significant pairs      ... done (   0.000 sec)
 Creation of shell pair data             ... done (   0.000 sec)
 Storage of shell pair data              ... done (   0.001 sec)
 Shell pair data done in (   0.002 sec)
 Computing two index integrals           ... done
 Cholesky decomposition of the V-matrix  ... done


Timings:
 Total evaluation time                   ...   0.246 sec (  0.004 min)
 One electron matrix time                ...   0.019 sec (  0.000 min) =  7.8%
 Schwartz matrix evaluation time         ...   0.168 sec (  0.003 min) = 68.2%
 Two index repulsion integral time       ...   0.035 sec (  0.001 min) = 14.0%
 Cholesky decomposition of V             ...   0.003 sec (  0.000 min) =  1.0%
 Three index repulsion integral time     ...   0.000 sec (  0.000 min) =  0.0%



           ************************************************************
           *        Program running with 6 parallel MPI-processes     *
           *              working on a common directory               *
           ************************************************************
-------------------------------------------------------------------------------
                                 ORCA SCF
-------------------------------------------------------------------------------

------------
SCF SETTINGS
------------
Hamiltonian:
 Density Functional     Method          .... DFT(GTOs)
 Exchange Functional    Exchange        .... B88
   X-Alpha parameter    XAlpha          ....  0.666667
   Becke's b parameter  XBeta           ....  0.004200
 Correlation Functional Correlation     .... LYP
 LDA part of GGA corr.  LDAOpt          .... VWN-5
 Gradients option       PostSCFGGA      .... off
 Hybrid DFT is turned on
   Fraction HF Exchange ScalHFX         ....  0.200000
   Scaling of DF-GGA-X  ScalDFX         ....  0.720000
   Scaling of DF-GGA-C  ScalDFC         ....  0.810000
   Scaling of DF-LDA-C  ScalLDAC        ....  1.000000
   Perturbative correction              ....  0.000000
   NL short-range parameter             ....  4.800000
 RI-approximation to the Coulomb term is turned on
   Number of auxiliary basis functions  .... 311
   RIJ-COSX (HFX calculated with COS-X)).... on


General Settings:
 Integral files         IntName         .... g8raf/frag_27_c00001
 Hartree-Fock type      HFTyp           .... RHF
 Total Charge           Charge          ....    0
 Multiplicity           Mult            ....    1
 Number of Electrons    NEL             ....   38
 Basis Dimension        Dim             ....  100
 Nuclear Repulsion      ENuc            ....    160.1258765621 Eh

Convergence Acceleration:
 DIIS                   CNVDIIS         .... on
   Start iteration      DIISMaxIt       ....    12
   Startup error        DIISStart       ....  0.200000
   # of expansion vecs  DIISMaxEq       ....     5
   Bias factor          DIISBfac        ....   1.050
   Max. coefficient     DIISMaxC        ....  10.000
 Newton-Raphson         CNVNR           .... off
 SOSCF                  CNVSOSCF        .... on
   Start iteration      SOSCFMaxIt      ....   150
   Startup grad/error   SOSCFStart      ....  0.003300
 Level Shifting         CNVShift        .... on
   Level shift para.    LevelShift      ....    0.2500
   Turn off err/grad.   ShiftErr        ....    0.0010
 Zerner damping         CNVZerner       .... off
 Static damping         CNVDamp         .... on
   Fraction old density DampFac         ....    0.7000
   Max. Damping (<1)    DampMax         ....    0.9800
   Min. Damping (>=0)   DampMin         ....    0.0000
   Turn off err/grad.   DampErr         ....    0.1000
 Fernandez-Rico         CNVRico         .... off

SCF Procedure:
 Maximum # iterations   MaxIter         ....   125
 SCF integral mode      SCFMode         .... Direct
   Integral package                     .... LIBINT
 Reset frequeny         DirectResetFreq ....    20
 Integral Threshold     Thresh          ....  2.500e-11 Eh
 Primitive CutOff       TCut            ....  2.500e-12 Eh

Convergence Tolerance:
 Convergence Check Mode ConvCheckMode   .... Total+1el-Energy
 Convergence forced     ConvForced      .... 0
 Energy Change          TolE            ....  1.000e-08 Eh
 1-El. energy change                    ....  1.000e-05 Eh
 Orbital Gradient       TolG            ....  1.000e-05
 Orbital Rotation angle TolX            ....  1.000e-05
 DIIS Error             TolErr          ....  5.000e-07


Diagonalization of the overlap matrix:
Smallest eigenvalue                        ... 2.174e-03
Time for diagonalization                   ...    0.002 sec
Threshold for overlap eigenvalues          ... 1.000e-08
Number of eigenvalues below threshold      ... 0
Time for construction of square roots      ...    0.001 sec
Total time needed                          ...    0.003 sec

-------------------
DFT GRID GENERATION
-------------------

General Integration Accuracy     IntAcc      ...  4.340
Radial Grid Type                 RadialGrid  ... Gauss-Chebyshev
Angular Grid (max. acc.)         AngularGrid ... Lebedev-110
Angular grid pruning method      GridPruning ... 3 (G Style)
Weight generation scheme         WeightScheme... Becke
Basis function cutoff            BFCut       ...    1.0000e-11
Integration weight cutoff        WCut        ...    1.0000e-14
Grids for H and He will be reduced by one unit

# of grid points (after initial pruning)     ...  13104 (   0.0 sec)
# of grid points (after weights+screening)   ...  12400 (   0.0 sec)
nearest neighbour list constructed           ...    0.0 sec
Grid point re-assignment to atoms done       ...    0.0 sec
Grid point division into batches done        ...    0.0 sec
Reduced shell lists constructed in    0.0 sec

Total number of grid points                  ...    12400
Total number of batches                      ...      198
Average number of points per batch           ...       62
Average number of grid points per atom       ...     1127
Average number of shells per batch           ...    40.35 (84.07%)
Average number of basis functions per batch  ...    82.88 (82.88%)
Average number of large shells per batch     ...    33.15 (82.14%)
Average number of large basis fcns per batch ...    68.21 (82.29%)
Maximum spatial batch extension              ...  15.24, 14.58, 25.65 au
Average spatial batch extension              ...   0.65,  0.63,  0.85 au

Time for grid setup =    0.055 sec

------------------------------
INITIAL GUESS: MODEL POTENTIAL
------------------------------
Loading Hartree-Fock densities                     ... done
Calculating cut-offs                               ... done
Setting up the integral package                    ... done
Initializing the effective Hamiltonian             ... done
Starting the Coulomb interaction                   ... done (   0.0 sec)
Reading the grid                                   ... done
Mapping shells                                     ... done
Starting the XC term evaluation                    ... done (   0.0 sec)
  promolecular density results
     # of electrons  =     38.011237905
     EX              =    -30.486733648
     EC              =     -1.253796576
     EX+EC           =    -31.740530224
Transforming the Hamiltonian                       ... done (   0.0 sec)
Diagonalizing the Hamiltonian                      ... done (   0.0 sec)
Back transforming the eigenvectors                 ... done (   0.0 sec)
Now organizing SCF variables                       ... done
                      ------------------
                      INITIAL GUESS DONE (   0.2 sec)
                      ------------------
--------------------
COSX GRID GENERATION
--------------------

General Integration Accuracy     IntAcc      ...  3.340
Radial Grid Type                 RadialGrid  ... Gauss-Chebyshev
Angular Grid (max. acc.)         AngularGrid ... Lebedev-50
Angular grid pruning method      GridPruning ... 3 (G Style)
Weight generation scheme         WeightScheme... Becke
Basis function cutoff            BFCut       ...    1.0000e-11
Integration weight cutoff        WCut        ...    1.0000e-14
Grids for H and He will be reduced by one unit

# of grid points (after initial pruning)     ...   4820 (   0.0 sec)
# of grid points (after weights+screening)   ...   4578 (   0.0 sec)
nearest neighbour list constructed           ...    0.0 sec
Grid point re-assignment to atoms done       ...    0.0 sec
Grid point division into batches done        ...    0.0 sec
Reduced shell lists constructed in    0.0 sec

Total number of grid points                  ...     4578
Total number of batches                      ...       77
Average number of points per batch           ...       59
Average number of grid points per atom       ...      416
Average number of shells per batch           ...    41.50 (86.46%)
Average number of basis functions per batch  ...    85.93 (85.93%)
Average number of large shells per batch     ...    35.43 (85.37%)
Average number of large basis fcns per batch ...    73.14 (85.12%)
Maximum spatial batch extension              ...  14.28, 15.14, 25.32 au
Average spatial batch extension              ...   0.72,  0.84,  1.09 au

Overlap Fitting                  UseSFitting ... on
Constructing numerical overlap ... done (      0.0 sec)
Inverting numerical overlap    ... done (      0.0 sec)
Obtaining analytic overlap     ... done (      0.0 sec)
Final contraction and storage  ... done (      0.0 sec)


General Integration Accuracy     IntAcc      ...  3.670
Radial Grid Type                 RadialGrid  ... Gauss-Chebyshev
Angular Grid (max. acc.)         AngularGrid ... Lebedev-50
Angular grid pruning method      GridPruning ... 3 (G Style)
Weight generation scheme         WeightScheme... Becke
Basis function cutoff            BFCut       ...    1.0000e-11
Integration weight cutoff        WCut        ...    1.0000e-14
Grids for H and He will be reduced by one unit

# of grid points (after initial pruning)     ...   6170 (   0.0 sec)
# of grid points (after weights+screening)   ...   5855 (   0.0 sec)
nearest neighbour list constructed           ...    0.0 sec
Grid point re-assignment to atoms done       ...    0.0 sec
Grid point division into batches done        ...    0.0 sec
Reduced shell lists constructed in    0.0 sec

Total number of grid points                  ...     5855
Total number of batches                      ...       98
Average number of points per batch           ...       59
Average number of grid points per atom       ...      532
Average number of shells per batch           ...    41.61 (86.69%)
Average number of basis functions per batch  ...    85.94 (85.94%)
Average number of large shells per batch     ...    35.00 (84.11%)
Average number of large basis fcns per batch ...    71.89 (83.65%)
Maximum spatial batch extension              ...  15.29, 16.34, 27.71 au
Average spatial batch extension              ...   0.73,  0.79,  1.03 au

Overlap Fitting                  UseSFitting ... on
Constructing numerical overlap ... done (      0.0 sec)
Inverting numerical overlap    ... done (      0.0 sec)
Obtaining analytic overlap     ... done (      0.0 sec)
Final contraction and storage  ... done (      0.0 sec)


General Integration Accuracy     IntAcc      ...  4.010
Radial Grid Type                 RadialGrid  ... Gauss-Chebyshev
Angular Grid (max. acc.)         AngularGrid ... Lebedev-110
Angular grid pruning method      GridPruning ... 3 (G Style)
Weight generation scheme         WeightScheme... Becke
Basis function cutoff            BFCut       ...    1.0000e-11
Integration weight cutoff        WCut        ...    1.0000e-14
Grids for H and He will be reduced by one unit

# of grid points (after initial pruning)     ...  11302 (   0.0 sec)
# of grid points (after weights+screening)   ...  10707 (   0.0 sec)
nearest neighbour list constructed           ...    0.0 sec
Grid point re-assignment to atoms done       ...    0.0 sec
Grid point division into batches done        ...    0.0 sec
Reduced shell lists constructed in    0.0 sec

Total number of grid points                  ...    10707
Total number of batches                      ...      173
Average number of points per batch           ...       61
Average number of grid points per atom       ...      973
Average number of shells per batch           ...    40.93 (85.28%)
Average number of basis functions per batch  ...    84.40 (84.40%)
Average number of large shells per batch     ...    33.97 (82.98%)
Average number of large basis fcns per batch ...    69.37 (82.19%)
Maximum spatial batch extension              ...  14.62, 14.12, 24.28 au
Average spatial batch extension              ...   0.67,  0.65,  0.90 au

Overlap Fitting                  UseSFitting ... on
Constructing numerical overlap ... done (      0.0 sec)
Inverting numerical overlap    ... done (      0.0 sec)
Obtaining analytic overlap     ... done (      0.0 sec)
Final contraction and storage  ... done (      0.0 sec)

Time for X-Grid setup             =    0.190 sec
--------------
SCF ITERATIONS
--------------
ITER       Energy         Delta-E        Max-DP      RMS-DP      [F,P]     Damp
               ***  Starting incremental Fock matrix formation  ***
  0   -230.9407037174   0.000000000000 0.10012883  0.00353210  0.2505135 0.7000
  1   -231.0200081502  -0.079304432797 0.05974673  0.00225998  0.0960945 0.7000
                               ***Turning on DIIS***
  2   -231.0483093973  -0.028301247143 0.05775636  0.00310366  0.0357032 0.0000
  3   -231.0959694883  -0.047660090947 0.04569510  0.00166070  0.0468174 0.0000
  4   -231.1052524207  -0.009282932421 0.01005289  0.00046728  0.0218549 0.0000
  5   -231.1063375403  -0.001085119551 0.00321665  0.00014513  0.0039713 0.0000
                      *** Initiating the SOSCF procedure ***
                           *** Shutting down DIIS ***
                      *** Re-Reading the Fockian *** 
                      *** Removing any level shift *** 
ITER      Energy       Delta-E        Grad      Rot      Max-DP    RMS-DP
  6   -231.10637910  -0.0000415591  0.000252  0.000252  0.001826  0.000079
               *** Restarting incremental Fock matrix formation ***
  7   -231.10638883  -0.0000097306  0.000243  0.001025  0.001247  0.000034
  8   -231.10638705   0.0000017764  0.000465  0.000687  0.000810  0.000021
  9   -231.10638966  -0.0000026095  0.000033  0.000121  0.000109  0.000005
 10   -231.10638966   0.0000000066  0.000036  0.000064  0.000080  0.000003
 11   -231.10638969  -0.0000000295  0.000006  0.000018  0.000030  0.000001
 12   -231.10638968   0.0000000032  0.000014  0.000013  0.000021  0.000001
                  ***Gradient check signals convergence***
              ***Rediagonalizing the Fockian in SOSCF/NRSCF***

               *****************************************************
               *                     SUCCESS                       *
               *           SCF CONVERGED AFTER  13 CYCLES          *
               *****************************************************

Setting up the final grid:

General Integration Accuracy     IntAcc      ...  4.670
Radial Grid Type                 RadialGrid  ... Gauss-Chebyshev
Angular Grid (max. acc.)         AngularGrid ... Lebedev-302
Angular grid pruning method      GridPruning ... 3 (G Style)
Weight generation scheme         WeightScheme... Becke
Basis function cutoff            BFCut       ...    1.0000e-11
Integration weight cutoff        WCut        ...    1.0000e-14
Grids for H and He will be reduced by one unit

# of grid points (after initial pruning)     ...  51424 (   0.0 sec)
# of grid points (after weights+screening)   ...  48208 (   0.0 sec)
nearest neighbour list constructed           ...    0.0 sec
Grid point re-assignment to atoms done       ...    0.0 sec
Grid point division into batches done        ...    0.2 sec
Reduced shell lists constructed in    0.2 sec

Total number of grid points                  ...    48208
Total number of batches                      ...      759
Average number of points per batch           ...       63
Average number of grid points per atom       ...     4383
Average number of shells per batch           ...    38.12 (79.41%)
Average number of basis functions per batch  ...    78.41 (78.41%)
Average number of large shells per batch     ...    30.40 (79.75%)
Average number of large basis fcns per batch ...    62.65 (79.89%)
Maximum spatial batch extension              ...  14.38, 14.15, 16.05 au
Average spatial batch extension              ...   0.43,  0.43,  0.50 au

Final grid set up in    0.3 sec
Final integration                            ... done (   0.1 sec)
Change in XC energy                          ...     0.000717016
Integrated number of electrons               ...    37.999988389
Previous integrated no of electrons          ...    38.007818546
Old exchange energy                            =     -6.208471968 Eh
New exchange energy                            =     -6.208404092 Eh
Exchange energy change after final integration =      0.000067876 Eh
Total energy after final integration           =   -231.105604794 Eh
Final COS-X integration done in                =     0.436 sec

----------------
TOTAL SCF ENERGY
----------------

Total Energy       :         -231.10560479 Eh           -6288.70322 eV

Components:
Nuclear Repulsion  :          160.12587656 Eh            4357.24662 eV
Electronic Energy  :         -391.23148136 Eh          -10645.94984 eV
One Electron Energy:         -629.28469961 Eh          -17123.70723 eV
Two Electron Energy:          238.05321825 Eh            6477.75739 eV

Virial components:
Potential Energy   :         -460.73509131 Eh          -12537.23922 eV
Kinetic Energy     :          229.62948652 Eh            6248.53600 eV
Virial Ratio       :            2.00642826


DFT components:
N(Alpha)           :       18.999994194283 electrons
N(Beta)            :       18.999994194283 electrons
N(Total)           :       37.999988388566 electrons
E(X)               :      -24.657474402769 Eh       
E(C)               :       -1.488057772651 Eh       
E(XC)              :      -26.145532175421 Eh       

---------------
SCF CONVERGENCE
---------------

  Last Energy change         ...   -2.9999e-09  Tolerance :   1.0000e-08
  Last MAX-Density change    ...    5.3077e-14  Tolerance :   1.0000e-07
  Last RMS-Density change    ...    5.4921e-16  Tolerance :   5.0000e-09
  Last Orbital Gradient      ...    5.2087e-07  Tolerance :   1.0000e-05
  Last Orbital Rotation      ...    7.9944e-07  Tolerance :   1.0000e-05

             **** THE GBW FILE WAS UPDATED (g8raf/frag_27_c00001.gbw) ****
             **** DENSITY FILE WAS UPDATED (g8raf/frag_27_c00001.scfp.tmp) ****
             **** ENERGY FILE WAS UPDATED (g8raf/frag_27_c00001.en.tmp) ****
----------------
ORBITAL ENERGIES
----------------

  NO   OCC          E(Eh)            E(eV) 
   0   2.0000     -19.137042      -520.7454 
   1   2.0000     -10.271014      -279.4885 
   2   2.0000     -10.209366      -277.8110 
   3   2.0000     -10.206906      -277.7440 
   4   2.0000     -10.188417      -277.2409 
   5   2.0000      -1.037018       -28.2187 
   6   2.0000      -0.817823       -22.2541 
   7   2.0000      -0.703265       -19.1368 
   8   2.0000      -0.639924       -17.4132 
   9   2.0000      -0.538382       -14.6501 
  10   2.0000      -0.485507       -13.2113 
  11   2.0000      -0.460183       -12.5222 
  12   2.0000      -0.430749       -11.7213 
  13   2.0000      -0.412242       -11.2177 
  14   2.0000      -0.383517       -10.4360 
  15   2.0000      -0.378084       -10.2882 
  16   2.0000      -0.377529       -10.2731 
  17   2.0000      -0.278010        -7.5650 
  18   2.0000      -0.254196        -6.9170 
  19   0.0000      -0.060770        -1.6536 
  20   0.0000       0.052980         1.4416 
  21   0.0000       0.067599         1.8395 
  22   0.0000       0.092541         2.5182 
  23   0.0000       0.103777         2.8239 
  24   0.0000       0.122996         3.3469 
  25   0.0000       0.149538         4.0691 
  26   0.0000       0.157249         4.2790 
  27   0.0000       0.218662         5.9501 
  28   0.0000       0.256540         6.9808 
  29   0.0000       0.305773         8.3205 
  30   0.0000       0.359059         9.7705 
  31   0.0000       0.423236        11.5168 
  32   0.0000       0.433388        11.7931 
  33   0.0000       0.456238        12.4149 
  34   0.0000       0.478399        13.0179 
  35   0.0000       0.480838        13.0843 
  36   0.0000       0.510933        13.9032 
  37   0.0000       0.539696        14.6859 
  38   0.0000       0.562201        15.2983 
  39   0.0000       0.615345        16.7444 
  40   0.0000       0.625707        17.0264 
  41   0.0000       0.638931        17.3862 
  42   0.0000       0.643410        17.5081 
  43   0.0000       0.650368        17.6974 
  44   0.0000       0.669430        18.2161 
  45   0.0000       0.694781        18.9060 
  46   0.0000       0.728527        19.8242 
  47   0.0000       0.765519        20.8308 
  48   0.0000       0.807819        21.9819 
  49   0.0000       0.876178        23.8420 
  50   0.0000       0.920817        25.0567 
  51   0.0000       0.922015        25.0893 
  52   0.0000       0.989891        26.9363 
  53   0.0000       1.008569        27.4445 
  54   0.0000       1.039599        28.2889 
  55   0.0000       1.051332        28.6082 
  56   0.0000       1.077551        29.3217 
  57   0.0000       1.151015        31.3207 
  58   0.0000       1.158682        31.5293 
  59   0.0000       1.257855        34.2280 
  60   0.0000       1.321199        35.9516 
  61   0.0000       1.321250        35.9531 
  62   0.0000       1.395697        37.9789 
  63   0.0000       1.419929        38.6382 
  64   0.0000       1.468271        39.9537 
  65   0.0000       1.524247        41.4769 
  66   0.0000       1.530051        41.6348 
  67   0.0000       1.544628        42.0315 
  68   0.0000       1.569482        42.7078 
  69   0.0000       1.601781        43.5867 
  70   0.0000       1.630172        44.3592 
  71   0.0000       1.656409        45.0732 
  72   0.0000       1.672689        45.5162 
  73   0.0000       1.703312        46.3495 
  74   0.0000       1.731697        47.1219 
  75   0.0000       1.749354        47.6024 
  76   0.0000       1.789410        48.6923 
  77   0.0000       1.835607        49.9494 
  78   0.0000       1.887586        51.3638 
  79   0.0000       1.902352        51.7656 
  80   0.0000       1.957376        53.2629 
  81   0.0000       2.019945        54.9655 
  82   0.0000       2.026294        55.1383 
  83   0.0000       2.107317        57.3430 
  84   0.0000       2.123357        57.7795 
  85   0.0000       2.266796        61.6827 
  86   0.0000       2.272086        61.8266 
  87   0.0000       2.359472        64.2045 
  88   0.0000       2.370668        64.5092 
  89   0.0000       2.420506        65.8653 
  90   0.0000       2.445458        66.5443 
  91   0.0000       2.479652        67.4748 
  92   0.0000       2.577622        70.1407 
  93   0.0000       2.685617        73.0793 
  94   0.0000       2.694773        73.3285 
  95   0.0000       2.765890        75.2637 
  96   0.0000       2.972217        80.8781 
  97   0.0000       3.056924        83.1831 
  98   0.0000       3.403497        92.6139 
  99   0.0000       3.443264        93.6960 
-------
TIMINGS
-------

Total SCF time: 0 days 0 hours 0 min 7 sec 

Total time                  ....       7.102 sec
Sum of individual times     ....       7.071 sec  ( 99.6%)

Fock matrix formation       ....       6.320 sec  ( 89.0%)
  Split-RI-J                ....       1.870 sec  ( 29.6% of F)
  Chain of spheres X        ....       3.823 sec  ( 60.5% of F)
  COS-X 1 center corr.      ....       0.000 sec  (  0.0% of F)
  XC integration            ....       0.590 sec  (  9.3% of F)
    Basis function eval.    ....       0.187 sec  ( 31.6% of XC)
    Density eval.           ....       0.074 sec  ( 12.5% of XC)
    XC-Functional eval.     ....       0.029 sec  (  4.9% of XC)
    XC-Potential eval.      ....       0.154 sec  ( 26.0% of XC)
Diagonalization             ....       0.015 sec  (  0.2%)
Density matrix formation    ....       0.003 sec  (  0.0%)
Population analysis         ....       0.000 sec  (  0.0%)
Initial guess               ....       0.151 sec  (  2.1%)
Orbital Transformation      ....       0.000 sec  (  0.0%)
Orbital Orthonormalization  ....       0.000 sec  (  0.0%)
DIIS solution               ....       0.004 sec  (  0.1%)
SOSCF solution              ....       0.065 sec  (  0.9%)
Grid generation             ....       0.513 sec  (  7.2%)


-------------------------------------------------------------------------------
                          DFT DISPERSION CORRECTION                            
                                                                               
                              DFTD3 V3.1  Rev 1                                
                          USING Becke-Johnson damping                          
-------------------------------------------------------------------------------
The B3LYP functional is recognized
Active option DFTDOPT                   ...         4   

molecular C6(AA) [au] = 1119.643536 


            DFT-D V3
 parameters
 s6 scaling factor         :     1.0000 
 a1 scaling factor         :     0.3981 
 s8 scaling factor         :     1.9889 
 a2 scaling factor         :     4.4211 
 ad hoc parameters k1-k3   :    16.0000     1.3333    -4.0000 

 Edisp/kcal,au: -8.338255538951  -0.013287854597 
 E6   /kcal   :  -3.985638984 
 E8   /kcal   :  -4.352616555 
 % E8         :  52.200565631 

-------------------------   ----------------
Dispersion correction           -0.013287855
-------------------------   ----------------


-------------------------   --------------------
FINAL SINGLE POINT ENERGY      -231.118892648535
-------------------------   --------------------



           ************************************************************
           *        Program running with 6 parallel MPI-processes     *
           *              working on a common directory               *
           ************************************************************
------------------------------------------------------------------------------
                         ORCA SCF GRADIENT CALCULATION
------------------------------------------------------------------------------

Gradient of the Kohn-Sham DFT energy:
Kohn-Sham wavefunction type      ... RKS
Hartree-Fock exchange scaling    ...    0.200
Number of operators              ...    1
Number of atoms                  ...   11
Basis set dimensions             ...  100
Integral neglect threshold       ... 2.5e-11
Integral primitive cutoff        ... 2.5e-12

Nuclear repulsion gradient       ... done
One Electron Gradient            ... done
Pre-screening matrix             ... done
RI-J gradient                    ... done
COSX-gradient                    ... done
Exchange-correlation gradient    ... done
Dispersion correction            ... done

------------------
CARTESIAN GRADIENT
------------------

   1   C   :    0.000804049    0.024179914   -0.000018689
   2   O   :    0.005906033   -0.013332503   -0.000003111
   3   C   :   -0.005026308   -0.004606283   -0.000003318
   4   C   :    0.003881268   -0.001735310   -0.000006991
   5   C   :    0.002011661    0.002377235    0.000002947
   6   H   :   -0.003694554   -0.008723250    0.000010812
   7   H   :   -0.003647789    0.004698918    0.001640494
   8   H   :    0.003573745   -0.002065205    0.000000108
   9   H   :   -0.003652244    0.004679365   -0.001629711
  10   H   :   -0.005073833   -0.003625654    0.000004359
  11   H   :    0.005049400   -0.001107203   -0.000003862

Difference to translation invariance:
           :    0.0001314284    0.0007400243   -0.0000069647

Norm of the cartesian gradient     ...    0.0334749030
RMS gradient                       ...    0.0058272327
MAX gradient                       ...    0.0241799144

-------
TIMINGS
-------

Total SCF gradient time            ...        1.613 sec

One electron gradient       ....       0.025 sec  (  1.6%)
Prescreening matrices       ....       0.051 sec  (  3.2%)
RI-J Coulomb gradient       ....       0.258 sec  ( 16.0%)
COSX gradient               ....       0.567 sec  ( 35.2%)
XC gradient                 ....       0.351 sec  ( 21.8%)
------------------------------------------------------------------------------
                         ORCA GEOMETRY RELAXATION STEP
------------------------------------------------------------------------------

Reading the OPT-File                    .... done
Getting information on internals        .... done
Copying old internal coords+grads       .... done
Making the new internal coordinates     .... (new redundants).... done
Validating the new internal coordinates .... (new redundants).... done
Calculating the B-matrix                .... done
Calculating the G,G- and P matrices     .... done
Transforming gradient to internals      .... done
Projecting the internal gradient        .... done
Number of atoms                         ....  11
Number of internal coordinates          ....  39
Current Energy                          ....  -231.118892649 Eh
Current gradient norm                   ....     0.033474903 Eh/bohr
Maximum allowed component of the step   ....  0.300
Current trust radius                    ....  0.300
Evaluating the initial hessian          ....  (Almloef) done
Projecting the Hessian                  .... done
Forming the augmented Hessian           .... done
Diagonalizing the augmented Hessian     .... done
Last element of RFO vector              ....  0.998126554
Lowest eigenvalues of augmented Hessian:
 -0.001245761  0.013141203  0.013141208  0.013384605  0.021274900
Length of the computed step             ....  0.061298019
The final length of the internal step   ....  0.061298019
Converting the step to cartesian space:
 Initial RMS(Int)=    0.0098155387
Transforming coordinates:
 Iter   0:  RMS(Cart)=    0.0160540110 RMS(Int)=    1.7426330806
 Iter   1:  RMS(Cart)=    0.0001176821 RMS(Int)=    0.0000864827
 Iter   2:  RMS(Cart)=    0.0000014148 RMS(Int)=    0.0000011856
 Iter   3:  RMS(Cart)=    0.0000000248 RMS(Int)=    0.0000000178
done
Storing new coordinates                 .... done

                                .--------------------.
          ----------------------|Geometry convergence|-------------------------
          Item                value                   Tolerance       Converged
          ---------------------------------------------------------------------
          RMS gradient        0.0037906051            0.0020000000      NO
          MAX gradient        0.0144825618            0.0030000000      NO
          RMS step            0.0098155387            0.0200000000      YES
          MAX step            0.0275316838            0.0300000000      YES
          ........................................................
          Max(Bonds)      0.0146      Max(Angles)    1.16
          Max(Dihed)        0.72      Max(Improp)    0.00
          ---------------------------------------------------------------------

The optimization has not yet converged - more geometry cycles are needed


    ---------------------------------------------------------------------------
                         Redundant Internal Coordinates
                            (Angstroem and degrees)

        Definition                    Value    dE/dq     Step     New-Value
    ----------------------------------------------------------------------------
     1. B(O   1,C   0)                1.2249  0.014483 -0.0075    1.2174   
     2. B(C   2,C   0)                1.4862  0.002925 -0.0035    1.4827   
     3. B(C   3,C   2)                1.4945 -0.004713  0.0058    1.5003   
     4. B(C   4,C   2)                1.3412 -0.003160  0.0022    1.3434   
     5. B(H   5,C   0)                1.1031 -0.009483  0.0146    1.1177   
     6. B(H   6,C   3)                1.0949 -0.004666  0.0070    1.1019   
     7. B(H   7,C   3)                1.0952 -0.003814  0.0057    1.1009   
     8. B(H   8,C   3)                1.0949 -0.004646  0.0069    1.1019   
     9. B(H   9,C   4)                1.0858 -0.005781  0.0083    1.0941   
    10. B(H  10,C   4)                1.0865 -0.005073  0.0073    1.0938   
    11. A(C   2,C   0,H   5)          115.95  0.002395   -0.37    115.58   
    12. A(O   1,C   0,C   2)          122.54 -0.003360    0.47    123.01   
    13. A(O   1,C   0,H   5)          121.51  0.000966   -0.10    121.40   
    14. A(C   0,C   2,C   4)          118.45  0.001930   -0.25    118.19   
    15. A(C   0,C   2,C   3)          117.16  0.002122   -0.31    116.85   
    16. A(C   3,C   2,C   4)          124.40 -0.004052    0.56    124.96   
    17. A(C   2,C   3,H   6)          110.53 -0.000739    0.02    110.55   
    18. A(H   7,C   3,H   8)          107.66 -0.001814    0.60    108.26   
    19. A(H   6,C   3,H   8)          108.58  0.003406   -1.16    107.42   
    20. A(C   2,C   3,H   8)          110.54 -0.000723    0.01    110.55   
    21. A(H   6,C   3,H   7)          107.66 -0.001808    0.60    108.26   
    22. A(C   2,C   3,H   7)          111.74  0.001705   -0.07    111.67   
    23. A(H   9,C   4,H  10)          116.58 -0.001153    0.21    116.79   
    24. A(C   2,C   4,H  10)          120.85 -0.002974    0.45    121.31   
    25. A(C   2,C   4,H   9)          122.56  0.004128   -0.66    121.90   
    26. D(C   4,C   2,C   0,H   5)      0.01  0.000003   -0.01     -0.00   
    27. D(C   4,C   2,C   0,O   1)   -179.99  0.000004   -0.02   -180.00   
    28. D(C   3,C   2,C   0,H   5)   -179.98  0.000004   -0.02   -180.00   
    29. D(C   3,C   2,C   0,O   1)      0.02  0.000005   -0.02     -0.00   
    30. D(H   7,C   3,C   2,C   0)    180.00  0.000002   -0.00    179.99   
    31. D(H   6,C   3,C   2,C   4)    119.88 -0.001654    0.71    120.59   
    32. D(H   8,C   3,C   2,C   4)   -119.88  0.001655   -0.72   -120.60   
    33. D(H   8,C   3,C   2,C   0)     60.12  0.001655   -0.72     59.40   
    34. D(H   7,C   3,C   2,C   4)      0.00  0.000003   -0.01     -0.00   
    35. D(H   6,C   3,C   2,C   0)    -60.12 -0.001654    0.71    -59.41   
    36. D(H  10,C   4,C   2,C   3)     -0.01 -0.000002    0.00     -0.00   
    37. D(H  10,C   4,C   2,C   0)    180.00 -0.000002    0.00    180.00   
    38. D(H   9,C   4,C   2,C   3)   -180.00  0.000003   -0.00   -180.00   
    39. D(H   9,C   4,C   2,C   0)      0.00  0.000003   -0.01     -0.00   
    ----------------------------------------------------------------------------

         *************************************************************
         *                GEOMETRY OPTIMIZATION CYCLE   2            *
         *************************************************************
---------------------------------
CARTESIAN COORDINATES (ANGSTROEM)
---------------------------------
  C     -2.469873   -0.834032   -0.000091
  O     -1.832125   -1.871058    0.000400
  C     -3.952080   -0.797255    0.001102
  C     -4.662676   -2.118653    0.002975
  C     -4.557188    0.402156    0.000493
  H     -1.962362    0.161751   -0.001458
  H     -4.384158   -2.708842   -0.884842
  H     -5.756267   -1.992125    0.003855
  H     -4.382540   -2.707178    0.891390
  H     -3.988363    1.336807   -0.000839
  H     -5.647568    0.488630    0.001315

----------------------------
CARTESIAN COORDINATES (A.U.)
----------------------------
  NO LB      ZA    FRAG     MASS         X           Y           Z
   0 C     6.0000    0    12.011   -4.667384   -1.576093   -0.000171
   1 O     8.0000    0    15.999   -3.462215   -3.535788    0.000756
   2 C     6.0000    0    12.011   -7.468349   -1.506594    0.002083
   3 C     6.0000    0    12.011   -8.811180   -4.003673    0.005622
   4 C     6.0000    0    12.011   -8.611837    0.759965    0.000931
   5 H     1.0000    0     1.008   -3.708327    0.305664   -0.002755
   6 H     1.0000    0     1.008   -8.284857   -5.118970   -1.672109
   7 H     1.0000    0     1.008  -10.877768   -3.764571    0.007285
   8 H     1.0000    0     1.008   -8.281800   -5.115825    1.684483
   9 H     1.0000    0     1.008   -7.536914    2.526199   -0.001586
  10 H     1.0000    0     1.008  -10.672357    0.923377    0.002485

--------------------------------
INTERNAL COORDINATES (ANGSTROEM)
--------------------------------
 C      0   0   0     0.000000000000     0.00000000     0.00000000
 O      1   0   0     1.217434205154     0.00000000     0.00000000
 C      1   2   0     1.482663351268   123.01190765     0.00000000
 C      3   1   2     1.500346742769   116.84830354     0.00000000
 C      3   1   2     1.343407449307   118.19243012   179.99669687
 H      1   2   3     1.117655128969   121.40326286   179.99803304
 H      4   3   1     1.101868551196   110.54961501   300.59087740
 H      4   3   1     1.100887138952   111.66992308   179.99459166
 H      4   3   1     1.101871069518   110.54875913    59.39925070
 H      5   3   1     1.094137019004   121.90437062     0.00000000
 H      5   3   1     1.093804020272   121.30549522   180.00001572

---------------------------
INTERNAL COORDINATES (A.U.)
---------------------------
 C      0   0   0     0.000000000000     0.00000000     0.00000000
 O      1   0   0     2.300617233810     0.00000000     0.00000000
 C      1   2   0     2.801827682698   123.01190765     0.00000000
 C      3   1   2     2.835244449754   116.84830354     0.00000000
 C      3   1   2     2.538672165460   118.19243012   179.99669687
 H      1   2   3     2.112062105923   121.40326286   179.99803304
 H      4   3   1     2.082229797342   110.54961501   300.59087740
 H      4   3   1     2.080375196975   111.66992308   179.99459166
 H      4   3   1     2.082234556279   110.54875913    59.39925070
 H      5   3   1     2.067619318902   121.90437062     0.00000000
 H      5   3   1     2.066990042496   121.30549522   180.00001572



           ************************************************************
           *        Program running with 6 parallel MPI-processes     *
           *              working on a common directory               *
           ************************************************************
 One Electron integrals                  ... done
 Pre-screening matrix                    ... done


           ************************************************************
           *        Program running with 6 parallel MPI-processes     *
           *              working on a common directory               *
           ************************************************************

Diagonalization of the overlap matrix:
Smallest eigenvalue                        ... 2.187e-03
Time for diagonalization                   ...    0.002 sec
Threshold for overlap eigenvalues          ... 1.000e-08
Number of eigenvalues below threshold      ... 0
Time for construction of square roots      ...    0.001 sec
Total time needed                          ...    0.003 sec

-------------------
DFT GRID GENERATION
-------------------

General Integration Accuracy     IntAcc      ...  4.340
Radial Grid Type                 RadialGrid  ... Gauss-Chebyshev
Angular Grid (max. acc.)         AngularGrid ... Lebedev-110
Angular grid pruning method      GridPruning ... 3 (G Style)
Weight generation scheme         WeightScheme... Becke
Basis function cutoff            BFCut       ...    1.0000e-11
Integration weight cutoff        WCut        ...    1.0000e-14
Grids for H and He will be reduced by one unit

# of grid points (after initial pruning)     ...  13104 (   0.0 sec)
# of grid points (after weights+screening)   ...  12403 (   0.0 sec)
nearest neighbour list constructed           ...    0.0 sec
Grid point re-assignment to atoms done       ...    0.0 sec
Grid point division into batches done        ...    0.0 sec
Reduced shell lists constructed in    0.0 sec

Total number of grid points                  ...    12403
Total number of batches                      ...      199
Average number of points per batch           ...       62
Average number of grid points per atom       ...     1128
Average number of shells per batch           ...    40.34 (84.05%)
Average number of basis functions per batch  ...    82.74 (82.74%)
Average number of large shells per batch     ...    33.51 (83.07%)
Average number of large basis fcns per batch ...    69.23 (83.67%)
Maximum spatial batch extension              ...  15.23, 15.10, 25.65 au
Average spatial batch extension              ...   0.66,  0.62,  0.78 au

Time for grid setup =    0.045 sec

--------------------
COSX GRID GENERATION
--------------------

General Integration Accuracy     IntAcc      ...  3.340
Radial Grid Type                 RadialGrid  ... Gauss-Chebyshev
Angular Grid (max. acc.)         AngularGrid ... Lebedev-50
Angular grid pruning method      GridPruning ... 3 (G Style)
Weight generation scheme         WeightScheme... Becke
Basis function cutoff            BFCut       ...    1.0000e-11
Integration weight cutoff        WCut        ...    1.0000e-14
Grids for H and He will be reduced by one unit

# of grid points (after initial pruning)     ...   4820 (   0.0 sec)
# of grid points (after weights+screening)   ...   4579 (   0.0 sec)
nearest neighbour list constructed           ...    0.0 sec
Grid point re-assignment to atoms done       ...    0.0 sec
Grid point division into batches done        ...    0.0 sec
Reduced shell lists constructed in    0.0 sec

Total number of grid points                  ...     4579
Total number of batches                      ...       77
Average number of points per batch           ...       59
Average number of grid points per atom       ...      416
Average number of shells per batch           ...    41.43 (86.31%)
Average number of basis functions per batch  ...    85.71 (85.71%)
Average number of large shells per batch     ...    35.43 (85.52%)
Average number of large basis fcns per batch ...    73.14 (85.33%)
Maximum spatial batch extension              ...  14.27, 15.16, 25.32 au
Average spatial batch extension              ...   0.73,  0.85,  1.10 au

Overlap Fitting                  UseSFitting ... on
Constructing numerical overlap ... done (      0.0 sec)
Inverting numerical overlap    ... done (      0.0 sec)
Obtaining analytic overlap     ... done (      0.0 sec)
Final contraction and storage  ... done (      0.0 sec)


General Integration Accuracy     IntAcc      ...  3.670
Radial Grid Type                 RadialGrid  ... Gauss-Chebyshev
Angular Grid (max. acc.)         AngularGrid ... Lebedev-50
Angular grid pruning method      GridPruning ... 3 (G Style)
Weight generation scheme         WeightScheme... Becke
Basis function cutoff            BFCut       ...    1.0000e-11
Integration weight cutoff        WCut        ...    1.0000e-14
Grids for H and He will be reduced by one unit

# of grid points (after initial pruning)     ...   6170 (   0.0 sec)
# of grid points (after weights+screening)   ...   5858 (   0.0 sec)
nearest neighbour list constructed           ...    0.0 sec
Grid point re-assignment to atoms done       ...    0.0 sec
Grid point division into batches done        ...    0.0 sec
Reduced shell lists constructed in    0.0 sec

Total number of grid points                  ...     5858
Total number of batches                      ...       97
Average number of points per batch           ...       60
Average number of grid points per atom       ...      533
Average number of shells per batch           ...    41.56 (86.57%)
Average number of basis functions per batch  ...    85.89 (85.89%)
Average number of large shells per batch     ...    34.89 (83.96%)
Average number of large basis fcns per batch ...    71.67 (83.44%)
Maximum spatial batch extension              ...  15.29, 16.35, 27.71 au
Average spatial batch extension              ...   0.73,  0.81,  1.03 au

Overlap Fitting                  UseSFitting ... on
Constructing numerical overlap ... done (      0.0 sec)
Inverting numerical overlap    ... done (      0.0 sec)
Obtaining analytic overlap     ... done (      0.0 sec)
Final contraction and storage  ... done (      0.0 sec)


General Integration Accuracy     IntAcc      ...  4.010
Radial Grid Type                 RadialGrid  ... Gauss-Chebyshev
Angular Grid (max. acc.)         AngularGrid ... Lebedev-110
Angular grid pruning method      GridPruning ... 3 (G Style)
Weight generation scheme         WeightScheme... Becke
Basis function cutoff            BFCut       ...    1.0000e-11
Integration weight cutoff        WCut        ...    1.0000e-14
Grids for H and He will be reduced by one unit

# of grid points (after initial pruning)     ...  11302 (   0.0 sec)
# of grid points (after weights+screening)   ...  10705 (   0.0 sec)
nearest neighbour list constructed           ...    0.0 sec
Grid point re-assignment to atoms done       ...    0.0 sec
Grid point division into batches done        ...    0.0 sec
Reduced shell lists constructed in    0.0 sec

Total number of grid points                  ...    10705
Total number of batches                      ...      173
Average number of points per batch           ...       61
Average number of grid points per atom       ...      973
Average number of shells per batch           ...    41.00 (85.42%)
Average number of basis functions per batch  ...    84.47 (84.47%)
Average number of large shells per batch     ...    33.97 (82.85%)
Average number of large basis fcns per batch ...    69.30 (82.04%)
Maximum spatial batch extension              ...  14.62, 14.14, 24.28 au
Average spatial batch extension              ...   0.67,  0.64,  0.90 au

Overlap Fitting                  UseSFitting ... on
Constructing numerical overlap ... done (      0.0 sec)
Inverting numerical overlap    ... done (      0.0 sec)
Obtaining analytic overlap     ... done (      0.0 sec)
Final contraction and storage  ... done (      0.0 sec)

Time for X-Grid setup             =    0.197 sec
--------------
SCF ITERATIONS
--------------
ITER       Energy         Delta-E        Max-DP      RMS-DP      [F,P]     Damp
               ***  Starting incremental Fock matrix formation  ***
                      *** Initiating the SOSCF procedure ***
                      *** Re-Reading the Fockian *** 
                      *** Removing any level shift *** 
ITER      Energy       Delta-E        Grad      Rot      Max-DP    RMS-DP
  0   -231.10693621 -231.1069362055  0.002305  0.002305  0.004910  0.000304
               *** Restarting incremental Fock matrix formation ***
  1   -231.10712236  -0.0001861513  0.000791  0.002856  0.005050  0.000180
  2   -231.10710464   0.0000177212  0.001923  0.002649  0.003731  0.000109
  3   -231.10714326  -0.0000386218  0.000183  0.000286  0.000771  0.000033
  4   -231.10714318   0.0000000779  0.000187  0.000160  0.000461  0.000016
  5   -231.10714451  -0.0000013348  0.000034  0.000138  0.000147  0.000004
  6   -231.10714449   0.0000000250  0.000045  0.000074  0.000092  0.000002
  7   -231.10714452  -0.0000000332  0.000006  0.000009  0.000020  0.000001
  8   -231.10714452   0.0000000000  0.000005  0.000004  0.000009  0.000000
                  ***Gradient check signals convergence***
              ***Rediagonalizing the Fockian in SOSCF/NRSCF***

               *****************************************************
               *                     SUCCESS                       *
               *           SCF CONVERGED AFTER   9 CYCLES          *
               *****************************************************

Setting up the final grid:

General Integration Accuracy     IntAcc      ...  4.670
Radial Grid Type                 RadialGrid  ... Gauss-Chebyshev
Angular Grid (max. acc.)         AngularGrid ... Lebedev-302
Angular grid pruning method      GridPruning ... 3 (G Style)
Weight generation scheme         WeightScheme... Becke
Basis function cutoff            BFCut       ...    1.0000e-11
Integration weight cutoff        WCut        ...    1.0000e-14
Grids for H and He will be reduced by one unit

# of grid points (after initial pruning)     ...  51424 (   0.0 sec)
# of grid points (after weights+screening)   ...  48200 (   0.0 sec)
nearest neighbour list constructed           ...    0.0 sec
Grid point re-assignment to atoms done       ...    0.0 sec
Grid point division into batches done        ...    0.2 sec
Reduced shell lists constructed in    0.2 sec

Total number of grid points                  ...    48200
Total number of batches                      ...      759
Average number of points per batch           ...       63
Average number of grid points per atom       ...     4382
Average number of shells per batch           ...    38.29 (79.77%)
Average number of basis functions per batch  ...    78.74 (78.74%)
Average number of large shells per batch     ...    30.62 (79.96%)
Average number of large basis fcns per batch ...    63.21 (80.28%)
Maximum spatial batch extension              ...  14.38, 14.40, 16.05 au
Average spatial batch extension              ...   0.43,  0.43,  0.49 au

Final grid set up in    0.3 sec
Final integration                            ... done (   0.1 sec)
Change in XC energy                          ...     0.000723284
Integrated number of electrons               ...    38.000007296
Previous integrated no of electrons          ...    38.007976383
Old exchange energy                            =     -6.205515061 Eh
New exchange energy                            =     -6.205448447 Eh
Exchange energy change after final integration =      0.000066614 Eh
Total energy after final integration           =   -231.106354626 Eh
Final COS-X integration done in                =     0.471 sec
Total Energy       :         -231.10635463 Eh           -6288.72362 eV
  Last Energy change         ...   -2.1024e-09  Tolerance :   1.0000e-08
  Last MAX-Density change    ...    6.5902e-14  Tolerance :   1.0000e-07
             **** THE GBW FILE WAS UPDATED (g8raf/frag_27_c00001.gbw) ****
             **** DENSITY FILE WAS UPDATED (g8raf/frag_27_c00001.scfp.tmp) ****
             **** ENERGY FILE WAS UPDATED (g8raf/frag_27_c00001.en.tmp) ****
Total SCF time: 0 days 0 hours 0 min 5 sec 


-------------------------------------------------------------------------------
                          DFT DISPERSION CORRECTION                            
                                                                               
                              DFTD3 V3.1  Rev 1                                
                          USING Becke-Johnson damping                          
-------------------------------------------------------------------------------
-------------------------   ----------------
Dispersion correction           -0.013270136
-------------------------   ----------------


-------------------------   --------------------
FINAL SINGLE POINT ENERGY      -231.119624762509
-------------------------   --------------------



           ************************************************************
           *        Program running with 6 parallel MPI-processes     *
           *              working on a common directory               *
           ************************************************************
------------------------------------------------------------------------------
                         ORCA SCF GRADIENT CALCULATION
------------------------------------------------------------------------------

Gradient of the Kohn-Sham DFT energy:
Kohn-Sham wavefunction type      ... RKS
Hartree-Fock exchange scaling    ...    0.200
Number of operators              ...    1
Number of atoms                  ...   11
Basis set dimensions             ...  100
Integral neglect threshold       ... 2.5e-11
Integral primitive cutoff        ... 2.5e-12

Nuclear repulsion gradient       ... done
One Electron Gradient            ... done
Pre-screening matrix             ... done
RI-J gradient                    ... done
COSX-gradient                    ... done
Exchange-correlation gradient    ... done
Dispersion correction            ... done

------------------
CARTESIAN GRADIENT
------------------

   1   C   :   -0.001031836    0.007582980   -0.000016523
   2   O   :    0.001235755   -0.004100324   -0.000001878
   3   C   :   -0.000593788   -0.003108462    0.000003457
   4   C   :    0.003063262   -0.000306590   -0.000000335
   5   C   :    0.002659810    0.000246416   -0.000001430
   6   H   :    0.000080033   -0.001764628    0.000001705
   7   H   :   -0.001613284    0.001250498   -0.001045175
   8   H   :   -0.000381420   -0.000751435    0.000002239
   9   H   :   -0.001615813    0.001248627    0.001045860
  10   H   :   -0.001505377    0.000966516    0.000000681
  11   H   :   -0.000184467   -0.000572925    0.000000814

Difference to translation invariance:
           :    0.0001128739    0.0006906741   -0.0000105858

Norm of the cartesian gradient     ...    0.0110204324
RMS gradient                       ...    0.0019184110
MAX gradient                       ...    0.0075829805

-------
TIMINGS
-------

Total SCF gradient time            ...        1.569 sec

One electron gradient       ....       0.015 sec  (  0.9%)
Prescreening matrices       ....       0.035 sec  (  2.2%)
RI-J Coulomb gradient       ....       0.208 sec  ( 13.3%)
COSX gradient               ....       0.559 sec  ( 35.6%)
XC gradient                 ....       0.412 sec  ( 26.3%)
------------------------------------------------------------------------------
                         ORCA GEOMETRY RELAXATION STEP
------------------------------------------------------------------------------

Reading the OPT-File                    .... done
Getting information on internals        .... done
Copying old internal coords+grads       .... done
Making the new internal coordinates     .... (new redundants).... done
Validating the new internal coordinates .... (new redundants).... done
Calculating the B-matrix                .... done
Calculating the G,G- and P matrices     .... done
Transforming gradient to internals      .... done
Projecting the internal gradient        .... done
Number of atoms                         ....  11
Number of internal coordinates          ....  39
Current Energy                          ....  -231.119624763 Eh
Current gradient norm                   ....     0.011020432 Eh/bohr
Maximum allowed component of the step   ....  0.300
Current trust radius                    ....  0.300
Updating the Hessian (BFGS)             .... done
Forming the augmented Hessian           .... done
Diagonalizing the augmented Hessian     .... done
Last element of RFO vector              ....  0.999129398
Lowest eigenvalues of augmented Hessian:
 -0.000269395  0.013141156  0.013141213  0.013384587  0.021274904
Length of the computed step             ....  0.041755016
The final length of the internal step   ....  0.041755016
Converting the step to cartesian space:
 Initial RMS(Int)=    0.0066861537
Transforming coordinates:
 Iter   0:  RMS(Cart)=    0.0119748207 RMS(Int)=    1.0060871799
 Iter   1:  RMS(Cart)=    0.0000843828 RMS(Int)=    0.0000720248
 Iter   2:  RMS(Cart)=    0.0000010958 RMS(Int)=    0.0000007168
 Iter   3:  RMS(Cart)=    0.0000000186 RMS(Int)=    0.0000000170
done
Storing new coordinates                 .... done

                                .--------------------.
          ----------------------|Geometry convergence|-------------------------
          Item                value                   Tolerance       Converged
          ---------------------------------------------------------------------
          Energy change      -0.0007321140            0.0001000000      NO
          RMS gradient        0.0012432090            0.0020000000      YES
          MAX gradient        0.0041598863            0.0030000000      NO
          RMS step            0.0066861537            0.0200000000      YES
          MAX step            0.0180227751            0.0300000000      YES
          ........................................................
          Max(Bonds)      0.0050      Max(Angles)    1.03
          Max(Dihed)        0.69      Max(Improp)    0.00
          ---------------------------------------------------------------------

The optimization has not yet converged - more geometry cycles are needed


    ---------------------------------------------------------------------------
                         Redundant Internal Coordinates
                            (Angstroem and degrees)

        Definition                    Value    dE/dq     Step     New-Value
    ----------------------------------------------------------------------------
     1. B(O   1,C   0)                1.2174  0.004160 -0.0038    1.2136   
     2. B(C   2,C   0)                1.4827  0.000205 -0.0007    1.4819   
     3. B(C   3,C   2)                1.5003 -0.000764  0.0020    1.5023   
     4. B(C   4,C   2)                1.3434 -0.000014  0.0003    1.3437   
     5. B(H   5,C   0)                1.1177 -0.001570  0.0050    1.1226   
     6. B(H   6,C   3)                1.1019 -0.000191  0.0012    1.1031   
     7. B(H   7,C   3)                1.1009  0.000270  0.0001    1.1010   
     8. B(H   8,C   3)                1.1019 -0.000189  0.0012    1.1030   
     9. B(H   9,C   4)                1.0941 -0.000042  0.0010    1.0952   
    10. B(H  10,C   4)                1.0938  0.000172  0.0005    1.0943   
    11. A(C   2,C   0,H   5)          115.58  0.002041   -0.48    115.11   
    12. A(O   1,C   0,C   2)          123.01 -0.002282    0.49    123.51   
    13. A(O   1,C   0,H   5)          121.40  0.000242   -0.02    121.39   
    14. A(C   0,C   2,C   4)          118.19  0.000833   -0.18    118.02   
    15. A(C   0,C   2,C   3)          116.85  0.001143   -0.26    116.59   
    16. A(C   3,C   2,C   4)          124.96 -0.001976    0.44    125.40   
    17. A(C   2,C   3,H   6)          110.55 -0.000162   -0.05    110.49   
    18. A(H   7,C   3,H   8)          108.26 -0.001087    0.56    108.82   
    19. A(H   6,C   3,H   8)          107.42  0.001790   -1.03    106.38   
    20. A(C   2,C   3,H   8)          110.55 -0.000152   -0.06    110.49   
    21. A(H   6,C   3,H   7)          108.26 -0.001083    0.56    108.82   
    22. A(C   2,C   3,H   7)          111.67  0.000702    0.01    111.68   
    23. A(H   9,C   4,H  10)          116.79 -0.000771    0.21    117.00   
    24. A(C   2,C   4,H  10)          121.31 -0.002191    0.51    121.82   
    25. A(C   2,C   4,H   9)          121.90  0.002962   -0.72    121.18   
    26. D(C   4,C   2,C   0,H   5)     -0.00  0.000004   -0.02     -0.02   
    27. D(C   4,C   2,C   0,O   1)    180.00  0.000001   -0.01    179.99   
    28. D(C   3,C   2,C   0,H   5)   -180.00  0.000003   -0.02   -180.02   
    29. D(C   3,C   2,C   0,O   1)     -0.00  0.000000   -0.00     -0.01   
    30. D(H   7,C   3,C   2,C   0)    179.99  0.000002   -0.01    179.98   
    31. D(H   6,C   3,C   2,C   4)    120.59 -0.001011    0.67    121.27   
    32. D(H   8,C   3,C   2,C   4)   -120.60  0.001013   -0.69   -121.29   
    33. D(H   8,C   3,C   2,C   0)     59.40  0.001014   -0.69     58.71   
    34. D(H   7,C   3,C   2,C   4)     -0.00  0.000001   -0.01     -0.01   
    35. D(H   6,C   3,C   2,C   0)    -59.41 -0.001010    0.67    -58.74   
    36. D(H  10,C   4,C   2,C   3)     -0.00 -0.000001    0.00     -0.00   
    37. D(H  10,C   4,C   2,C   0)   -180.00 -0.000002    0.00   -180.00   
    38. D(H   9,C   4,C   2,C   3)    180.00  0.000000   -0.00    180.00   
    39. D(H   9,C   4,C   2,C   0)     -0.00 -0.000001    0.00      0.00   
    ----------------------------------------------------------------------------

         *************************************************************
         *                GEOMETRY OPTIMIZATION CYCLE   3            *
         *************************************************************
---------------------------------
CARTESIAN COORDINATES (ANGSTROEM)
---------------------------------
  C     -2.476826   -0.836487    0.000012
  O     -1.834081   -1.865951    0.000637
  C     -3.958223   -0.796968    0.001098
  C     -4.666141   -2.122033    0.002948
  C     -4.557497    0.405670    0.000483
  H     -1.973521    0.166995   -0.001664
  H     -4.375861   -2.716145   -0.879939
  H     -5.760184   -1.998632    0.003952
  H     -4.374047   -2.714572    0.886288
  H     -3.971755    1.331034   -0.000813
  H     -5.647065    0.507288    0.001299

----------------------------
CARTESIAN COORDINATES (A.U.)
----------------------------
  NO LB      ZA    FRAG     MASS         X           Y           Z
   0 C     6.0000    0    12.011   -4.680523   -1.580731    0.000022
   1 O     8.0000    0    15.999   -3.465911   -3.526136    0.001204
   2 C     6.0000    0    12.011   -7.479957   -1.506051    0.002074
   3 C     6.0000    0    12.011   -8.817729   -4.010061    0.005570
   4 C     6.0000    0    12.011   -8.612420    0.766605    0.000913
   5 H     1.0000    0     1.008   -3.729414    0.315576   -0.003144
[...]

--------------------
COSX GRID GENERATION
--------------------

General Integration Accuracy     IntAcc      ...  3.340
Radial Grid Type                 RadialGrid  ... Gauss-Chebyshev
Angular Grid (max. acc.)         AngularGrid ... Lebedev-50
Angular grid pruning method      GridPruning ... 3 (G Style)
Weight generation scheme         WeightScheme... Becke
Basis function cutoff            BFCut       ...    1.0000e-11
Integration weight cutoff        WCut        ...    1.0000e-14
Grids for H and He will be reduced by one unit

# of grid points (after initial pruning)     ...   4820 (   0.0 sec)
# of grid points (after weights+screening)   ...   4581 (   0.0 sec)
nearest neighbour list constructed           ...    0.0 sec
Grid point re-assignment to atoms done       ...    0.0 sec
Grid point division into batches done        ...    0.0 sec
Reduced shell lists constructed in    0.0 sec

Total number of grid points                  ...     4581
Total number of batches                      ...       77
Average number of points per batch           ...       59
Average number of grid points per atom       ...      416
Average number of shells per batch           ...    41.50 (86.46%)
Average number of basis functions per batch  ...    85.93 (85.93%)
Average number of large shells per batch     ...    35.43 (85.37%)
Average number of large basis fcns per batch ...    73.14 (85.12%)
Maximum spatial batch extension              ...  14.29, 15.17, 25.32 au
Average spatial batch extension              ...   0.71,  0.84,  1.10 au

Overlap Fitting                  UseSFitting ... on
Constructing numerical overlap ... done (      0.0 sec)
Inverting numerical overlap    ... done (      0.0 sec)
Obtaining analytic overlap     ... done (      0.0 sec)
Final contraction and storage  ... done (      0.0 sec)


General Integration Accuracy     IntAcc      ...  3.670
Radial Grid Type                 RadialGrid  ... Gauss-Chebyshev
Angular Grid (max. acc.)         AngularGrid ... Lebedev-50
Angular grid pruning method      GridPruning ... 3 (G Style)
Weight generation scheme         WeightScheme... Becke
Basis function cutoff            BFCut       ...    1.0000e-11
Integration weight cutoff        WCut        ...    1.0000e-14
Grids for H and He will be reduced by one unit

# of grid points (after initial pruning)     ...   6170 (   0.0 sec)
# of grid points (after weights+screening)   ...   5859 (   0.0 sec)
nearest neighbour list constructed           ...    0.0 sec
Grid point re-assignment to atoms done       ...    0.0 sec
Grid point division into batches done        ...    0.0 sec
Reduced shell lists constructed in    0.0 sec

Total number of grid points                  ...     5859
Total number of batches                      ...       98
Average number of points per batch           ...       59
Average number of grid points per atom       ...      533
Average number of shells per batch           ...    41.61 (86.69%)
Average number of basis functions per batch  ...    85.94 (85.94%)
Average number of large shells per batch     ...    34.83 (83.71%)
Average number of large basis fcns per batch ...    71.61 (83.32%)
Maximum spatial batch extension              ...  15.27, 16.36, 27.71 au
Average spatial batch extension              ...   0.72,  0.81,  1.02 au

Overlap Fitting                  UseSFitting ... on
Constructing numerical overlap ... done (      0.0 sec)
Inverting numerical overlap    ... done (      0.0 sec)
Obtaining analytic overlap     ... done (      0.0 sec)
Final contraction and storage  ... done (      0.0 sec)


General Integration Accuracy     IntAcc      ...  4.010
Radial Grid Type                 RadialGrid  ... Gauss-Chebyshev
Angular Grid (max. acc.)         AngularGrid ... Lebedev-110
Angular grid pruning method      GridPruning ... 3 (G Style)
Weight generation scheme         WeightScheme... Becke
Basis function cutoff            BFCut       ...    1.0000e-11
Integration weight cutoff        WCut        ...    1.0000e-14
Grids for H and He will be reduced by one unit

# of grid points (after initial pruning)     ...  11302 (   0.0 sec)
# of grid points (after weights+screening)   ...  10707 (   0.0 sec)
nearest neighbour list constructed           ...    0.0 sec
Grid point re-assignment to atoms done       ...    0.0 sec
Grid point division into batches done        ...    0.0 sec
Reduced shell lists constructed in    0.0 sec

Total number of grid points                  ...    10707
Total number of batches                      ...      173
Average number of points per batch           ...       61
Average number of grid points per atom       ...      973
Average number of shells per batch           ...    41.07 (85.56%)
Average number of basis functions per batch  ...    84.73 (84.73%)
Average number of large shells per batch     ...    34.03 (82.87%)
Average number of large basis fcns per batch ...    69.57 (82.10%)
Maximum spatial batch extension              ...  14.92, 14.16, 24.28 au
Average spatial batch extension              ...   0.67,  0.64,  0.88 au

Overlap Fitting                  UseSFitting ... on
Constructing numerical overlap ... done (      0.0 sec)
Inverting numerical overlap    ... done (      0.0 sec)
Obtaining analytic overlap     ... done (      0.0 sec)
Final contraction and storage  ... done (      0.0 sec)

Time for X-Grid setup             =    0.141 sec
--------------
SCF ITERATIONS
--------------
ITER       Energy         Delta-E        Max-DP      RMS-DP      [F,P]     Damp
               ***  Starting incremental Fock matrix formation  ***
                      *** Initiating the SOSCF procedure ***
                      *** Re-Reading the Fockian *** 
                      *** Removing any level shift *** 
ITER      Energy       Delta-E        Grad      Rot      Max-DP    RMS-DP
  0   -231.10730110 -231.1073011005  0.000647  0.000647  0.002125  0.000102
               *** Restarting incremental Fock matrix formation ***
  1   -231.10732502  -0.0000239183  0.000191  0.000365  0.000654  0.000037
  2   -231.10732582  -0.0000007966  0.000360  0.000614  0.000808  0.000028
  3   -231.10732650  -0.0000006815  0.000178  0.000253  0.000322  0.000017
  4   -231.10732696  -0.0000004673  0.000067  0.000237  0.000244  0.000006
  5   -231.10732692   0.0000000410  0.000088  0.000137  0.000143  0.000004
  6   -231.10732699  -0.0000000645  0.000008  0.000013  0.000035  0.000001
  7   -231.10732699  -0.0000000022  0.000009  0.000006  0.000018  0.000001
                  ***Gradient check signals convergence***
              ***Rediagonalizing the Fockian in SOSCF/NRSCF***

               *****************************************************
               *                     SUCCESS                       *
               *           SCF CONVERGED AFTER   8 CYCLES          *
               *****************************************************

Setting up the final grid:

General Integration Accuracy     IntAcc      ...  4.670
Radial Grid Type                 RadialGrid  ... Gauss-Chebyshev
Angular Grid (max. acc.)         AngularGrid ... Lebedev-302
Angular grid pruning method      GridPruning ... 3 (G Style)
Weight generation scheme         WeightScheme... Becke
Basis function cutoff            BFCut       ...    1.0000e-11
Integration weight cutoff        WCut        ...    1.0000e-14
Grids for H and He will be reduced by one unit

# of grid points (after initial pruning)     ...  51424 (   0.0 sec)
# of grid points (after weights+screening)   ...  48201 (   0.0 sec)
nearest neighbour list constructed           ...    0.0 sec
Grid point re-assignment to atoms done       ...    0.0 sec
Grid point division into batches done        ...    0.2 sec
Reduced shell lists constructed in    0.2 sec

Total number of grid points                  ...    48201
Total number of batches                      ...      757
Average number of points per batch           ...       63
Average number of grid points per atom       ...     4382
Average number of shells per batch           ...    38.30 (79.80%)
Average number of basis functions per batch  ...    78.88 (78.88%)
Average number of large shells per batch     ...    30.62 (79.95%)
Average number of large basis fcns per batch ...    63.16 (80.06%)
Maximum spatial batch extension              ...  14.38, 14.39, 19.94 au
Average spatial batch extension              ...   0.43,  0.43,  0.49 au

Final grid set up in    0.3 sec
Final integration                            ... done (   0.1 sec)
Change in XC energy                          ...     0.000746504
Integrated number of electrons               ...    38.000027754
Previous integrated no of electrons          ...    38.008227120
Old exchange energy                            =     -6.205527907 Eh
New exchange energy                            =     -6.205452118 Eh
Exchange energy change after final integration =      0.000075790 Eh
Total energy after final integration           =   -231.106504698 Eh
Final COS-X integration done in                =     0.495 sec

----------------
TOTAL SCF ENERGY
----------------

Total Energy       :         -231.10650470 Eh           -6288.72771 eV

Components:
Nuclear Repulsion  :          160.06235465 Eh            4355.51810 eV
Electronic Energy  :         -391.16885935 Eh          -10644.24581 eV
One Electron Energy:         -629.14782063 Eh          -17119.98256 eV
Two Electron Energy:          237.97896128 Eh            6475.73676 eV

Virial components:
Potential Energy   :         -460.68817611 Eh          -12535.96259 eV
Kinetic Energy     :          229.58167141 Eh            6247.23488 eV
Virial Ratio       :            2.00664179


DFT components:
N(Alpha)           :       19.000013876988 electrons
N(Beta)            :       19.000013876988 electrons
N(Total)           :       38.000027753976 electrons
E(X)               :      -24.646615205436 Eh       
E(C)               :       -1.487472368543 Eh       
E(XC)              :      -26.134087573979 Eh       

---------------
SCF CONVERGENCE
---------------

  Last Energy change         ...   -2.0469e-09  Tolerance :   1.0000e-08
  Last MAX-Density change    ...    8.1184e-14  Tolerance :   1.0000e-07
  Last RMS-Density change    ...    8.7033e-16  Tolerance :   5.0000e-09
  Last Orbital Gradient      ...    3.7654e-07  Tolerance :   1.0000e-05
  Last Orbital Rotation      ...    6.7361e-07  Tolerance :   1.0000e-05

             **** THE GBW FILE WAS UPDATED (g8raf/frag_27_c00001.gbw) ****
             **** DENSITY FILE WAS UPDATED (g8raf/frag_27_c00001.scfp.tmp) ****
             **** ENERGY FILE WAS UPDATED (g8raf/frag_27_c00001.en.tmp) ****
----------------
ORBITAL ENERGIES
----------------

  NO   OCC          E(Eh)            E(eV) 
   0   2.0000     -19.137900      -520.7687 
   1   2.0000     -10.271442      -279.5001 
   2   2.0000     -10.210174      -277.8330 
   3   2.0000     -10.209153      -277.8052 
   4   2.0000     -10.191409      -277.3223 
   5   2.0000      -1.043907       -28.4062 
   6   2.0000      -0.816986       -22.2313 
   7   2.0000      -0.702648       -19.1200 
   8   2.0000      -0.637362       -17.3435 
   9   2.0000      -0.534992       -14.5579 
  10   2.0000      -0.483858       -13.1665 
  11   2.0000      -0.461643       -12.5619 
  12   2.0000      -0.427877       -11.6431 
  13   2.0000      -0.413342       -11.2476 
  14   2.0000      -0.384920       -10.4742 
  15   2.0000      -0.379501       -10.3268 
  16   2.0000      -0.379211       -10.3189 
  17   2.0000      -0.278292        -7.5727 
  18   2.0000      -0.254439        -6.9236 
  19   0.0000      -0.059586        -1.6214 
  20   0.0000       0.054086         1.4718 
  21   0.0000       0.066358         1.8057 
  22   0.0000       0.090998         2.4762 
  23   0.0000       0.102300         2.7837 
  24   0.0000       0.123121         3.3503 
  25   0.0000       0.148103         4.0301 
  26   0.0000       0.155850         4.2409 
  27   0.0000       0.217568         5.9203 
  28   0.0000       0.257226         6.9995 
  29   0.0000       0.303271         8.2524 
  30   0.0000       0.360959         9.8222 
  31   0.0000       0.419851        11.4247 
  32   0.0000       0.437526        11.9057 
  33   0.0000       0.454779        12.3752 
  34   0.0000       0.477217        12.9857 
  35   0.0000       0.478597        13.0233 
  36   0.0000       0.508474        13.8363 
  37   0.0000       0.536048        14.5866 
  38   0.0000       0.562656        15.3107 
  39   0.0000       0.616891        16.7865 
  40   0.0000       0.626272        17.0417 
  41   0.0000       0.636799        17.3282 
  42   0.0000       0.639672        17.4064 
  43   0.0000       0.649462        17.6728 
  44   0.0000       0.661637        18.0041 
  45   0.0000       0.692769        18.8512 
  46   0.0000       0.725041        19.7294 
  47   0.0000       0.765737        20.8368 
  48   0.0000       0.805929        21.9304 
  49   0.0000       0.877215        23.8702 
  50   0.0000       0.920284        25.0422 
  51   0.0000       0.923608        25.1327 
  52   0.0000       0.989399        26.9229 
  53   0.0000       1.003910        27.3178 
  54   0.0000       1.039071        28.2746 
  55   0.0000       1.048909        28.5423 
  56   0.0000       1.078189        29.3390 
  57   0.0000       1.149793        31.2875 
  58   0.0000       1.158599        31.5271 
  59   0.0000       1.263017        34.3684 
  60   0.0000       1.319176        35.8966 
  61   0.0000       1.325495        36.0686 
  62   0.0000       1.397325        38.0231 
  63   0.0000       1.413582        38.4655 
  64   0.0000       1.459151        39.7055 
  65   0.0000       1.520458        41.3738 
  66   0.0000       1.520989        41.3882 
  67   0.0000       1.531756        41.6812 
  68   0.0000       1.571888        42.7732 
  69   0.0000       1.601137        43.5692 
  70   0.0000       1.616437        43.9855 
  71   0.0000       1.655959        45.0609 
  72   0.0000       1.665255        45.3139 
  73   0.0000       1.702930        46.3391 
  74   0.0000       1.720055        46.8051 
  75   0.0000       1.748081        47.5677 
  76   0.0000       1.780494        48.4497 
  77   0.0000       1.828102        49.7452 
  78   0.0000       1.887815        51.3700 
  79   0.0000       1.894993        51.5654 
  80   0.0000       1.957112        53.2557 
  81   0.0000       2.008954        54.6664 
  82   0.0000       2.012967        54.7756 
  83   0.0000       2.105058        57.2815 
  84   0.0000       2.123452        57.7821 
  85   0.0000       2.247162        61.1484 
  86   0.0000       2.257093        61.4186 
  87   0.0000       2.339103        63.6502 
  88   0.0000       2.353491        64.0417 
  89   0.0000       2.407554        65.5129 
  90   0.0000       2.439124        66.3720 
  91   0.0000       2.467629        67.1476 
  92   0.0000       2.564917        69.7950 
  93   0.0000       2.680829        72.9491 
  94   0.0000       2.694606        73.3240 
  95   0.0000       2.758688        75.0677 
  96   0.0000       2.960067        80.5475 
  97   0.0000       3.067459        83.4698 
  98   0.0000       3.405385        92.6652 
  99   0.0000       3.456828        94.0651 
-------
TIMINGS
-------

Total SCF time: 0 days 0 hours 0 min 5 sec 

Total time                  ....       5.108 sec
Sum of individual times     ....       5.083 sec  ( 99.5%)

Fock matrix formation       ....       4.544 sec  ( 89.0%)
  Split-RI-J                ....       1.280 sec  ( 28.2% of F)
  Chain of spheres X        ....       2.888 sec  ( 63.6% of F)
  COS-X 1 center corr.      ....       0.000 sec  (  0.0% of F)
  XC integration            ....       0.356 sec  (  7.8% of F)
    Basis function eval.    ....       0.126 sec  ( 35.3% of XC)
    Density eval.           ....       0.048 sec  ( 13.6% of XC)
    XC-Functional eval.     ....       0.019 sec  (  5.3% of XC)
    XC-Potential eval.      ....       0.091 sec  ( 25.7% of XC)
Diagonalization             ....       0.002 sec  (  0.0%)
Density matrix formation    ....       0.014 sec  (  0.3%)
Population analysis         ....       0.000 sec  (  0.0%)
Initial guess               ....       0.002 sec  (  0.0%)
Orbital Transformation      ....       0.000 sec  (  0.0%)
Orbital Orthonormalization  ....       0.001 sec  (  0.0%)
DIIS solution               ....       0.000 sec  (  0.0%)
SOSCF solution              ....       0.070 sec  (  1.4%)
Grid generation             ....       0.450 sec  (  8.8%)


-------------------------------------------------------------------------------
                          DFT DISPERSION CORRECTION                            
                                                                               
                              DFTD3 V3.1  Rev 1                                
                          USING Becke-Johnson damping                          
-------------------------------------------------------------------------------
The B3LYP functional is recognized
Active option DFTDOPT                   ...         4   

molecular C6(AA) [au] = 1119.863214 


            DFT-D V3
 parameters
 s6 scaling factor         :     1.0000 
 a1 scaling factor         :     0.3981 
 s8 scaling factor         :     1.9889 
 a2 scaling factor         :     4.4211 
 ad hoc parameters k1-k3   :    16.0000     1.3333    -4.0000 

 Edisp/kcal,au: -8.328520253881  -0.013272340434 
 E6   /kcal   :  -3.980653788 
 E8   /kcal   :  -4.347866466 
 % E8         :  52.204549345 

-------------------------   ----------------
Dispersion correction           -0.013272340
-------------------------   ----------------


-------------------------   --------------------
FINAL SINGLE POINT ENERGY      -231.119777038456
-------------------------   --------------------

                                *** OPTIMIZATION RUN DONE ***

                            ***************************************
                            *     ORCA property calculations      *
                            ***************************************

                                    ---------------------
                                    Active property flags
                                    ---------------------
   (+) Dipole Moment


------------------------------------------------------------------------------
                       ORCA ELECTRIC PROPERTIES CALCULATION
------------------------------------------------------------------------------

Dipole Moment Calculation                       ... on
Quadrupole Moment Calculation                   ... off
Polarizability Calculation                      ... off
GBWName                                         ... g8raf/frag_27_c00001.gbw
Electron density file                           ... g8raf/frag_27_c00001.scfp.tmp
The origin for moment calculation is the CENTER OF MASS  = (-6.574518, -2.036589  0.001982)

-------------
DIPOLE MOMENT
-------------
                                X             Y             Z
Electronic contribution:      4.05693      -0.32835      -0.00326
Nuclear contribution   :     -4.87022       0.96516       0.00284
                        -----------------------------------------
Total Dipole Moment    :     -0.81329       0.63681      -0.00042
                        -----------------------------------------
Magnitude (a.u.)       :      1.03294
Magnitude (Debye)      :      2.62554


Timings for individual modules:

Sum of individual times         ...       33.181 sec (=   0.553 min)
GTO integral calculation        ...        2.298 sec (=   0.038 min)   6.9 %
SCF iterations                  ...       24.791 sec (=   0.413 min)  74.7 %
SCF Gradient evaluation         ...        5.879 sec (=   0.098 min)  17.7 %
Geometry relaxation             ...        0.213 sec (=   0.004 min)   0.6 %
                             ****ORCA TERMINATED NORMALLY****
TOTAL RUN TIME: 0 days 0 hours 0 minutes 34 seconds 173 msec
