
                                 *****************
                                 * O   R   C   A *
                                 *****************

           --- An Ab Initio, DFT and Semiempirical electronic structure package ---

                  #######################################################
                  #                        -***-                        #
                  #  Department of molecular theory and spectroscopy    #
                  #              Directorship: Frank Neese              #
                  # Max Planck Institute for Chemical Energy Conversion #
                  #                  D-45470 Muelheim/Ruhr              #
                  #                       Germany                       #
                  #                                                     #
                  #                  All rights reserved                #
                  #                        -***-                        #
                  #######################################################


                         Program Version 4.0.1.2 - RELEASE -


 With contributions from (in alphabetic order):
   Daniel Aravena         : Magnetic Properties
   Michael Atanasov       : Ab Initio Ligand Field Theory
   Ute Becker             : Parallelization
   Martin Brehm           : Molecular dynamics
   Dmytro Bykov           : SCF Hessian
   Vijay G. Chilkuri      : MRCI spin determinant printing
   Dipayan Datta          : RHF DLPNO-CCSD density
   Achintya Kumar Dutta   : EOM-CC, STEOM-CC
   Dmitry Ganyushin       : Spin-Orbit,Spin-Spin,Magnetic field MRCI
   Yang Guo               : DLPNO-NEVPT2, CIM, IAO-localization
   Andreas Hansen         : Spin unrestricted coupled pair/coupled cluster methods
   Lee Huntington         : MR-EOM, pCC
   Robert Izsak           : Overlap fitted RIJCOSX, COSX-SCS-MP3, EOM
   Christian Kollmar      : KDIIS, OOCD, Brueckner-CCSD(T), CCSD density
   Simone Kossmann        : Meta GGA functionals, TD-DFT gradient, OOMP2, MP2 Hessian
   Martin Krupicka        : AUTO-CI
   Dagmar Lenk            : GEPOL surface
   Dimitrios Liakos       : Extrapolation schemes; parallel MDCI
   Dimitrios Manganas     : ROCIS; embedding schemes
   Dimitrios Pantazis     : SARC Basis sets
   Taras Petrenko         : DFT Hessian,TD-DFT gradient, ASA, ECA, R-Raman, ABS, FL, XAS/XES, NRVS
   Peter Pinski           : DLPNO-MP2
   Christoph Reimann      : Effective Core Potentials
   Marius Retegan         : Local ZFS, SOC
   Christoph Riplinger    : Optimizer, TS searches, QM/MM, DLPNO-CCSD(T), (RO)-DLPNO pert. Triples
   Tobias Risthaus        : Range-separated hybrids, TD-DFT gradient, RPA, STAB
   Michael Roemelt        : Restricted open shell CIS
   Masaaki Saitow         : Open-shell DLPNO
   Barbara Sandhoefer     : DKH picture change effects
   Kantharuban Sivalingam : CASSCF convergence, NEVPT2, FIC-MRCI
   Georgi Stoychev        : AutoAux
   Boris Wezisla          : Elementary symmetry handling
   Frank Wennmohs         : Technical directorship


 We gratefully acknowledge several colleagues who have allowed us to
 interface, adapt or use parts of their codes:
   Stefan Grimme, W. Hujo, H. Kruse,             : VdW corrections, initial TS optimization,
                  C. Bannwarth                     DFT functionals, gCP, sTDA/sTD-DF
   Ed Valeev                                     : LibInt (2-el integral package), F12 methods
   Garnet Chan, S. Sharma, J. Yang, R. Olivares  : DMRG
   Ulf Ekstrom                                   : XCFun DFT Library
   Mihaly Kallay                                 : mrcc  (arbitrary order and MRCC methods)
   Andreas Klamt, Michael Diedenhofen            : otool_cosmo (COSMO solvation model)
   Jiri Pittner, Ondrej Demel                    : Mk-CCSD
   Frank Weinhold                                : gennbo (NPA and NBO analysis)
   Christopher J. Cramer and Donald G. Truhlar   : smd solvation model


 Your calculation uses the libint2 library for the computation of 2-el integrals
 For citations please refer to: http://libint.valeyev.net

 This ORCA versions uses:
   CBLAS   interface :  Fast vector & matrix operations
   LAPACKE interface :  Fast linear algebra routines
   SCALAPACK package :  Parallel linear algebra routines


Your calculation utilizes the atom-pairwise dispersion correction
with the Becke-Johnson damping scheme (D3BJ)
Cite in your paper:
S.Grimme, S.Ehrlich, L.Goerigk, J Comput Chem, (2011), 32, 1456–1465 
S.Grimme, J.Antony, S.Ehrlich and H.Krieg, J.Chem.Phys., 132, (2010), 154104 
   

Your calculation utilizes the basis: cc-pVDZ 
       H, B-Ne : Obtained from the ccRepo (grant-hill.group.shef.ac.uk/ccrepo) Feb. 2017
                 T. H. Dunning, Jr., J. Chem. Phys. 90, 1007 (1989)
            He : Obtained from the ccRepo (grant-hill.group.shef.ac.uk/ccrepo) Feb. 2017
                 D. E. Woon, T. H. Dunning, Jr., J. Chem. Phys. 100, 2975 (1994)
  Li-Be, Na-Mg : Obtained from the ccRepo (grant-hill.group.shef.ac.uk/ccrepo) Feb. 2017
                 B. P. Prascher, D. E. Woon, K. A. Peterson, T. H. Dunning, Jr., A. K. Wilson, Theor. Chem. Acc. 128, 69 (2011)
         Al-Ar : Obtained from the ccRepo (grant-hill.group.shef.ac.uk/ccrepo) Feb. 2017
                 D. E. Woon, T. H. Dunning, Jr., J. Chem. Phys. 98, 1358 (1993)
            Ca : Obtained from the Peterson Research Group Website (tyr0.chem.wsu.edu/~kipeters) Feb. 2017
                 J. Koput, K. A. Peterson, J. Phys. Chem. 106, 9595 (2002)
         Sc-Zn : Obtained from the ccRepo (grant-hill.group.shef.ac.uk/ccrepo) Feb. 2017
                 N. B. Balabanov, K. A. Peterson, J. Chem. Phys. 123, 064107 (2005)
                 N. B. Balabanov, K. A. Peterson, J. Chem. Phys. 125, 074110 (2006)
         Ga-Kr : Obtained from the ccRepo (grant-hill.group.shef.ac.uk/ccrepo) Feb. 2017
                 A. K. Wilson, D. E. Woon, K. A. Peterson, T. H. Dunning, Jr., J. Chem. Phys. 110, 7667 (1999)

Your calculation utilizes the auxiliary basis: def2/J
   F. Weigend, Phys. Chem. Chem. Phys. 8, 1057 (2006).

================================================================================
                                        WARNINGS
                       Please study these warnings very carefully!
================================================================================

Warning: TCutStore was < 0. Adjusted to Thresh (uncritical)

WARNING: Geometry Optimization
  ===> : Switching off AutoStart
         For restart on a previous wavefunction, please use MOREAD

INFO   : the flag for use of LIBINT has been found!

================================================================================
                                       INPUT FILE
================================================================================
NAME = g8raf/frag_18_c00001.com
|  1> %pal nprocs 6 end
|  2> %maxcore 1000
|  3> ! b3lyp TIGHTSCF nopop D3BJ
|  4> ! cc-pvdz def2/J RIJCOSX
|  5> ! Opt
|  6> 
|  7> %geom
|  8> maxiter 60
|  9> TolE 1e-4
| 10> TolRMSG 2e-3
| 11> TolMaxG 3e-3
| 12> TolRMSD 2e-2
| 13> TolMaxD 3e-2
| 14> end
| 15> 
| 16> *xyz 0 1
| 17> N -3.983 1.7052 -0.0088
| 18> C -2.4276 -0.9233 -0.04
| 19> O -1.9181 -2.0378 -0.0467
| 20> C -3.8893 -0.7514 0.0329
| 21> C -4.4992 0.4377 0.043
| 22> H -3.0589 1.7954 -0.4219
| 23> H -4.6317 2.4048 -0.3676
| 24> H -1.8217 -0.0049 -0.0788
| 25> H -4.4594 -1.6719 0.0941
| 26> H -5.5867 0.4509 0.1296
| 27> *
| 28> 
| 29> 
| 30>                          ****END OF INPUT****
================================================================================

                       *****************************
                       * Geometry Optimization Run *
                       *****************************

Geometry optimization settings:
Update method            Update   .... BFGS
Choice of coordinates    CoordSys .... Redundant Internals
Initial Hessian          InHess   .... Almoef's Model

Convergence Tolerances:
Energy Change            TolE     ....  1.0000e-04 Eh
Max. Gradient            TolMAXG  ....  3.0000e-03 Eh/bohr
RMS Gradient             TolRMSG  ....  2.0000e-03 Eh/bohr
Max. Displacement        TolMAXD  ....  3.0000e-02 bohr
RMS Displacement         TolRMSD  ....  2.0000e-02 bohr

------------------------------------------------------------------------------
                        ORCA OPTIMIZATION COORDINATE SETUP
------------------------------------------------------------------------------

The optimization will be done in new redundant internal coordinates
Making redundant internal coordinates   ...  (new redundants) done
Evaluating the initial hessian          ...  (Almloef) done
Evaluating the coordinates              ...  done
Calculating the B-matrix                .... done
Calculating the G-matrix                .... done
Diagonalizing the G-matrix              .... done
The first mode is                       ....    9
The number of degrees of freedom        ....   24

    -----------------------------------------------------------------
                    Redundant Internal Coordinates


    -----------------------------------------------------------------
         Definition                    Initial Value    Approx d2E/dq
    -----------------------------------------------------------------
      1. B(O   2,C   1)                  1.2255         1.024219   
      2. B(C   3,C   1)                  1.4736         0.459617   
      3. B(C   4,N   0)                  1.3696         0.603229   
      4. B(C   4,C   3)                  1.3364         0.760694   
      5. B(H   5,N   0)                  1.0162         0.422898   
      6. B(H   6,N   0)                  1.0193         0.418162   
      7. B(H   7,C   1)                  1.1009         0.345909   
      8. B(H   8,C   3)                  1.0845         0.367487   
      9. B(H   9,C   4)                  1.0910         0.358750   
     10. A(H   5,N   0,H   6)          112.0058         0.300505   
     11. A(C   4,N   0,H   5)          116.1200         0.355613   
     12. A(C   4,N   0,H   6)          114.1197         0.354934   
     13. A(O   2,C   1,H   7)          121.9822         0.379573   
     14. A(O   2,C   1,C   3)          121.2501         0.447288   
     15. A(C   3,C   1,H   7)          116.7655         0.333388   
     16. A(C   1,C   3,C   4)          123.8387         0.426740   
     17. A(C   1,C   3,H   8)          115.1653         0.336758   
     18. A(C   4,C   3,H   8)          120.9903         0.366685   
     19. A(C   3,C   4,H   9)          117.7916         0.365177   
     20. A(N   0,C   4,C   3)          130.6291         0.445222   
     21. A(N   0,C   4,H   9)          111.5613         0.348897   
     22. D(C   4,C   3,C   1,H   7)      0.5479         0.014390   
     23. D(H   8,C   3,C   1,H   7)   -178.5889         0.014390   
     24. D(C   4,C   3,C   1,O   2)   -179.9746         0.014390   
     25. D(H   8,C   3,C   1,O   2)      0.8887         0.014390   
     26. D(H   9,C   4,C   3,H   8)      0.8835         0.041382   
     27. D(H   9,C   4,N   0,H   5)   -158.2865         0.029344   
     28. D(C   3,C   4,N   0,H   6)    155.9134         0.029344   
     29. D(N   0,C   4,C   3,H   8)    179.1934         0.041382   
     30. D(C   3,C   4,N   0,H   5)     23.3211         0.029344   
     31. D(H   9,C   4,C   3,C   1)   -178.2051         0.041382   
     32. D(N   0,C   4,C   3,C   1)      0.1048         0.041382   
     33. D(H   9,C   4,N   0,H   6)    -25.6942         0.029344   
    -----------------------------------------------------------------

Number of atoms                         .... 10
Number of degrees of freedom            .... 33

         *************************************************************
         *                GEOMETRY OPTIMIZATION CYCLE   1            *
         *************************************************************
---------------------------------
CARTESIAN COORDINATES (ANGSTROEM)
---------------------------------
  N     -3.983000    1.705200   -0.008800
  C     -2.427600   -0.923300   -0.040000
  O     -1.918100   -2.037800   -0.046700
  C     -3.889300   -0.751400    0.032900
  C     -4.499200    0.437700    0.043000
  H     -3.058900    1.795400   -0.421900
  H     -4.631700    2.404800   -0.367600
  H     -1.821700   -0.004900   -0.078800
  H     -4.459400   -1.671900    0.094100
  H     -5.586700    0.450900    0.129600

----------------------------
CARTESIAN COORDINATES (A.U.)
----------------------------
  NO LB      ZA    FRAG     MASS         X           Y           Z
   0 N     7.0000    0    14.007   -7.526779    3.222361   -0.016630
   1 C     6.0000    0    12.011   -4.587499   -1.744784   -0.075589
   2 O     8.0000    0    15.999   -3.624684   -3.850884   -0.088250
   3 C     6.0000    0    12.011   -7.349712   -1.419940    0.062172
   4 C     6.0000    0    12.011   -8.502256    0.827133    0.081258
   5 H     1.0000    0     1.008   -5.780483    3.392814   -0.797275
   6 H     1.0000    0     1.008   -8.752645    4.544413   -0.694663
   7 H     1.0000    0     1.008   -3.442514   -0.009260   -0.148910
   8 H     1.0000    0     1.008   -8.427045   -3.159433    0.177823
   9 H     1.0000    0     1.008  -10.557333    0.852078    0.244909

--------------------------------
INTERNAL COORDINATES (ANGSTROEM)
--------------------------------
 N      0   0   0     0.000000000000     0.00000000     0.00000000
 C      1   0   0     3.054382891846     0.00000000     0.00000000
 O      2   1   0     1.225457216715   173.94717034     0.00000000
 C      2   1   3     1.473577588728    52.69733239   359.43044115
 C      4   2   1     1.336427637398   123.83865686   359.95517067
 H      1   2   3     1.016242323464    66.99365499   203.38265179
 H      1   2   3     1.019308240916   155.66280364   296.19308727
 H      2   1   6     1.100944508138    64.07061959    23.40153466
 H      4   2   1     1.084472083550   115.16531366   180.81840954
 H      5   4   2     1.091022479145   117.79162447   181.79492028

---------------------------
INTERNAL COORDINATES (A.U.)
---------------------------
 N      0   0   0     0.000000000000     0.00000000     0.00000000
 C      1   0   0     5.771947173723     0.00000000     0.00000000
 O      2   1   0     2.315778528430   173.94717034     0.00000000
 C      2   1   3     2.784658079779    52.69733239   359.43044115
 C      4   2   1     2.525482232485   123.83865686   359.95517067
 H      1   2   3     1.920419677047    66.99365499   203.38265179
 H      1   2   3     1.926213421381   155.66280364   296.19308727
 H      2   1   6     2.080483609026    64.07061959    23.40153466
 H      4   2   1     2.049355237793   115.16531366   180.81840954
 H      5   4   2     2.061733691536   117.79162447   181.79492028

---------------------
BASIS SET INFORMATION
---------------------
There are 4 groups of distinct atoms

 Group   1 Type N   : 17s4p1d contracted to 3s2p1d pattern {881/31/1}
 Group   2 Type C   : 17s4p1d contracted to 3s2p1d pattern {881/31/1}
 Group   3 Type O   : 17s4p1d contracted to 3s2p1d pattern {881/31/1}
 Group   4 Type H   : 4s1p contracted to 2s1p pattern {31/1}

Atom   0N    basis set group =>   1
Atom   1C    basis set group =>   2
Atom   2O    basis set group =>   3
Atom   3C    basis set group =>   2
Atom   4C    basis set group =>   2
Atom   5H    basis set group =>   4
Atom   6H    basis set group =>   4
Atom   7H    basis set group =>   4
Atom   8H    basis set group =>   4
Atom   9H    basis set group =>   4
-------------------------------
AUXILIARY BASIS SET INFORMATION
-------------------------------
There are 4 groups of distinct atoms

 Group   1 Type N   : 12s5p4d2f1g contracted to 6s4p3d1f1g pattern {711111/2111/211/2/1}
 Group   2 Type C   : 12s5p4d2f1g contracted to 6s4p3d1f1g pattern {711111/2111/211/2/1}
 Group   3 Type O   : 12s5p4d2f1g contracted to 6s4p3d1f1g pattern {711111/2111/211/2/1}
 Group   4 Type H   : 5s2p1d contracted to 3s1p1d pattern {311/2/1}

Atom   0N    basis set group =>   1
Atom   1C    basis set group =>   2
Atom   2O    basis set group =>   3
Atom   3C    basis set group =>   2
Atom   4C    basis set group =>   2
Atom   5H    basis set group =>   4
Atom   6H    basis set group =>   4
Atom   7H    basis set group =>   4
Atom   8H    basis set group =>   4
Atom   9H    basis set group =>   4


           ************************************************************
           *        Program running with 6 parallel MPI-processes     *
           *              working on a common directory               *
           ************************************************************
------------------------------------------------------------------------------
                           ORCA GTO INTEGRAL CALCULATION
                           -- RI-GTO INTEGRALS CHOSEN --
------------------------------------------------------------------------------

                         BASIS SET STATISTICS AND STARTUP INFO

Gaussian basis set:
 # of primitive gaussian shells          ...  135
 # of primitive gaussian functions       ...  205
 # of contracted shells                  ...   45
 # of contracted basis functions         ...   95
 Highest angular momentum                ...    2
 Maximum contraction depth               ...    8
Auxiliary gaussian basis set:
 # of primitive gaussian shells          ...  160
 # of primitive gaussian functions       ...  430
 # of contracted shells                  ...  100
 # of contracted aux-basis functions     ...  300
 Highest angular momentum                ...    4
 Maximum contraction depth               ...    7
Ratio of auxiliary to basis functions    ...  3.16
Integral package used                  ... LIBINT
 One Electron integrals                  ... done
 Ordering auxiliary basis shells         ... done
 Integral threshhold             Thresh  ...  2.500e-11
 Primitive cut-off               TCut    ...  2.500e-12
 Pre-screening matrix                    ... done
 Shell pair data                         ... 
 Ordering of the shell pairs             ... done (   0.000 sec) 1017 of 1035 pairs
 Determination of significant pairs      ... done (   0.000 sec)
 Creation of shell pair data             ... done (   0.000 sec)
 Storage of shell pair data              ... done (   0.001 sec)
 Shell pair data done in (   0.002 sec)
 Computing two index integrals           ... done
 Cholesky decomposition of the V-matrix  ... done


Timings:
 Total evaluation time                   ...   0.320 sec (  0.005 min)
 One electron matrix time                ...   0.022 sec (  0.000 min) =  6.7%
 Schwartz matrix evaluation time         ...   0.224 sec (  0.004 min) = 70.1%
 Two index repulsion integral time       ...   0.039 sec (  0.001 min) = 12.1%
 Cholesky decomposition of V             ...   0.003 sec (  0.000 min) =  0.8%
 Three index repulsion integral time     ...   0.000 sec (  0.000 min) =  0.0%



           ************************************************************
           *        Program running with 6 parallel MPI-processes     *
           *              working on a common directory               *
           ************************************************************
-------------------------------------------------------------------------------
                                 ORCA SCF
-------------------------------------------------------------------------------

------------
SCF SETTINGS
------------
Hamiltonian:
 Density Functional     Method          .... DFT(GTOs)
 Exchange Functional    Exchange        .... B88
   X-Alpha parameter    XAlpha          ....  0.666667
   Becke's b parameter  XBeta           ....  0.004200
 Correlation Functional Correlation     .... LYP
 LDA part of GGA corr.  LDAOpt          .... VWN-5
 Gradients option       PostSCFGGA      .... off
 Hybrid DFT is turned on
   Fraction HF Exchange ScalHFX         ....  0.200000
   Scaling of DF-GGA-X  ScalDFX         ....  0.720000
   Scaling of DF-GGA-C  ScalDFC         ....  0.810000
   Scaling of DF-LDA-C  ScalLDAC        ....  1.000000
   Perturbative correction              ....  0.000000
   NL short-range parameter             ....  4.800000
 RI-approximation to the Coulomb term is turned on
   Number of auxiliary basis functions  .... 300
   RIJ-COSX (HFX calculated with COS-X)).... on


General Settings:
 Integral files         IntName         .... g8raf/frag_18_c00001
 Hartree-Fock type      HFTyp           .... RHF
 Total Charge           Charge          ....    0
 Multiplicity           Mult            ....    1
 Number of Electrons    NEL             ....   38
 Basis Dimension        Dim             ....   95
 Nuclear Repulsion      ENuc            ....    156.8789468679 Eh

Convergence Acceleration:
 DIIS                   CNVDIIS         .... on
   Start iteration      DIISMaxIt       ....    12
   Startup error        DIISStart       ....  0.200000
   # of expansion vecs  DIISMaxEq       ....     5
   Bias factor          DIISBfac        ....   1.050
   Max. coefficient     DIISMaxC        ....  10.000
 Newton-Raphson         CNVNR           .... off
 SOSCF                  CNVSOSCF        .... on
   Start iteration      SOSCFMaxIt      ....   150
   Startup grad/error   SOSCFStart      ....  0.003300
 Level Shifting         CNVShift        .... on
   Level shift para.    LevelShift      ....    0.2500
   Turn off err/grad.   ShiftErr        ....    0.0010
 Zerner damping         CNVZerner       .... off
 Static damping         CNVDamp         .... on
   Fraction old density DampFac         ....    0.7000
   Max. Damping (<1)    DampMax         ....    0.9800
   Min. Damping (>=0)   DampMin         ....    0.0000
   Turn off err/grad.   DampErr         ....    0.1000
 Fernandez-Rico         CNVRico         .... off

SCF Procedure:
 Maximum # iterations   MaxIter         ....   125
 SCF integral mode      SCFMode         .... Direct
   Integral package                     .... LIBINT
 Reset frequeny         DirectResetFreq ....    20
 Integral Threshold     Thresh          ....  2.500e-11 Eh
 Primitive CutOff       TCut            ....  2.500e-12 Eh

Convergence Tolerance:
 Convergence Check Mode ConvCheckMode   .... Total+1el-Energy
 Convergence forced     ConvForced      .... 0
 Energy Change          TolE            ....  1.000e-08 Eh
 1-El. energy change                    ....  1.000e-05 Eh
 Orbital Gradient       TolG            ....  1.000e-05
 Orbital Rotation angle TolX            ....  1.000e-05
 DIIS Error             TolErr          ....  5.000e-07


Diagonalization of the overlap matrix:
Smallest eigenvalue                        ... 1.820e-03
Time for diagonalization                   ...    0.003 sec
Threshold for overlap eigenvalues          ... 1.000e-08
Number of eigenvalues below threshold      ... 0
Time for construction of square roots      ...    0.001 sec
Total time needed                          ...    0.004 sec

-------------------
DFT GRID GENERATION
-------------------

General Integration Accuracy     IntAcc      ...  4.340
Radial Grid Type                 RadialGrid  ... Gauss-Chebyshev
Angular Grid (max. acc.)         AngularGrid ... Lebedev-110
Angular grid pruning method      GridPruning ... 3 (G Style)
Weight generation scheme         WeightScheme... Becke
Basis function cutoff            BFCut       ...    1.0000e-11
Integration weight cutoff        WCut        ...    1.0000e-14
Grids for H and He will be reduced by one unit

# of grid points (after initial pruning)     ...  12356 (   0.0 sec)
# of grid points (after weights+screening)   ...  11783 (   0.0 sec)
nearest neighbour list constructed           ...    0.0 sec
Grid point re-assignment to atoms done       ...    0.0 sec
Grid point division into batches done        ...    0.0 sec
Reduced shell lists constructed in    0.0 sec

Total number of grid points                  ...    11783
Total number of batches                      ...      190
Average number of points per batch           ...       62
Average number of grid points per atom       ...     1178
Average number of shells per batch           ...    40.67 (90.37%)
Average number of basis functions per batch  ...    84.73 (89.19%)
Average number of large shells per batch     ...    33.73 (82.94%)
Average number of large basis fcns per batch ...    69.85 (82.44%)
Maximum spatial batch extension              ...   9.04, 12.44, 19.90 au
Average spatial batch extension              ...   0.33,  0.36,  0.52 au

Time for grid setup =    0.048 sec

------------------------------
INITIAL GUESS: MODEL POTENTIAL
------------------------------
Loading Hartree-Fock densities                     ... done
Calculating cut-offs                               ... done
Setting up the integral package                    ... done
Initializing the effective Hamiltonian             ... done
Starting the Coulomb interaction                   ... done (   0.0 sec)
Reading the grid                                   ... done
Mapping shells                                     ... done
Starting the XC term evaluation                    ... done (   0.0 sec)
  promolecular density results
     # of electrons  =     37.995452612
     EX              =    -31.645817170
     EC              =     -1.277888526
     EX+EC           =    -32.923705696
Transforming the Hamiltonian                       ... done (   0.0 sec)
Diagonalizing the Hamiltonian                      ... done (   0.0 sec)
Back transforming the eigenvectors                 ... done (   0.0 sec)
Now organizing SCF variables                       ... done
                      ------------------
                      INITIAL GUESS DONE (   0.2 sec)
                      ------------------
--------------------
COSX GRID GENERATION
--------------------

General Integration Accuracy     IntAcc      ...  3.340
Radial Grid Type                 RadialGrid  ... Gauss-Chebyshev
Angular Grid (max. acc.)         AngularGrid ... Lebedev-50
Angular grid pruning method      GridPruning ... 3 (G Style)
Weight generation scheme         WeightScheme... Becke
Basis function cutoff            BFCut       ...    1.0000e-11
Integration weight cutoff        WCut        ...    1.0000e-14
Grids for H and He will be reduced by one unit

# of grid points (after initial pruning)     ...   4486 (   0.0 sec)
# of grid points (after weights+screening)   ...   4297 (   0.0 sec)
nearest neighbour list constructed           ...    0.0 sec
Grid point re-assignment to atoms done       ...    0.0 sec
Grid point division into batches done        ...    0.0 sec
Reduced shell lists constructed in    0.0 sec

Total number of grid points                  ...     4297
Total number of batches                      ...       73
Average number of points per batch           ...       58
Average number of grid points per atom       ...      430
Average number of shells per batch           ...    39.50 (87.78%)
Average number of basis functions per batch  ...    82.36 (86.69%)
Average number of large shells per batch     ...    34.07 (86.26%)
Average number of large basis fcns per batch ...    71.79 (87.16%)
Maximum spatial batch extension              ...   6.08,  9.12, 16.90 au
Average spatial batch extension              ...   0.38,  0.44,  0.86 au

Overlap Fitting                  UseSFitting ... on
Constructing numerical overlap ... done (      0.0 sec)
Inverting numerical overlap    ... done (      0.0 sec)
Obtaining analytic overlap     ... done (      0.0 sec)
Final contraction and storage  ... done (      0.0 sec)


General Integration Accuracy     IntAcc      ...  3.670
Radial Grid Type                 RadialGrid  ... Gauss-Chebyshev
Angular Grid (max. acc.)         AngularGrid ... Lebedev-50
Angular grid pruning method      GridPruning ... 3 (G Style)
Weight generation scheme         WeightScheme... Becke
Basis function cutoff            BFCut       ...    1.0000e-11
Integration weight cutoff        WCut        ...    1.0000e-14
Grids for H and He will be reduced by one unit

# of grid points (after initial pruning)     ...   5734 (   0.0 sec)
# of grid points (after weights+screening)   ...   5477 (   0.0 sec)
nearest neighbour list constructed           ...    0.0 sec
Grid point re-assignment to atoms done       ...    0.0 sec
Grid point division into batches done        ...    0.0 sec
Reduced shell lists constructed in    0.0 sec

Total number of grid points                  ...     5477
Total number of batches                      ...       90
Average number of points per batch           ...       60
Average number of grid points per atom       ...      548
Average number of shells per batch           ...    39.94 (88.75%)
Average number of basis functions per batch  ...    83.31 (87.70%)
Average number of large shells per batch     ...    34.00 (85.13%)
Average number of large basis fcns per batch ...    71.25 (85.52%)
Maximum spatial batch extension              ...   6.02, 10.22, 19.19 au
Average spatial batch extension              ...   0.38,  0.41,  0.87 au

Overlap Fitting                  UseSFitting ... on
Constructing numerical overlap ... done (      0.0 sec)
Inverting numerical overlap    ... done (      0.0 sec)
Obtaining analytic overlap     ... done (      0.0 sec)
Final contraction and storage  ... done (      0.0 sec)


General Integration Accuracy     IntAcc      ...  4.010
Radial Grid Type                 RadialGrid  ... Gauss-Chebyshev
Angular Grid (max. acc.)         AngularGrid ... Lebedev-110
Angular grid pruning method      GridPruning ... 3 (G Style)
Weight generation scheme         WeightScheme... Becke
Basis function cutoff            BFCut       ...    1.0000e-11
Integration weight cutoff        WCut        ...    1.0000e-14
Grids for H and He will be reduced by one unit

# of grid points (after initial pruning)     ...  10634 (   0.0 sec)
# of grid points (after weights+screening)   ...  10145 (   0.0 sec)
nearest neighbour list constructed           ...    0.0 sec
Grid point re-assignment to atoms done       ...    0.0 sec
Grid point division into batches done        ...    0.0 sec
Reduced shell lists constructed in    0.0 sec

Total number of grid points                  ...    10145
Total number of batches                      ...      164
Average number of points per batch           ...       61
Average number of grid points per atom       ...     1014
Average number of shells per batch           ...    40.66 (90.34%)
Average number of basis functions per batch  ...    84.72 (89.18%)
Average number of large shells per batch     ...    34.28 (84.31%)
Average number of large basis fcns per batch ...    71.10 (83.92%)
Maximum spatial batch extension              ...   8.39, 11.61, 18.89 au
Average spatial batch extension              ...   0.35,  0.39,  0.55 au

Overlap Fitting                  UseSFitting ... on
Constructing numerical overlap ... done (      0.0 sec)
Inverting numerical overlap    ... done (      0.0 sec)
Obtaining analytic overlap     ... done (      0.0 sec)
Final contraction and storage  ... done (      0.0 sec)

Time for X-Grid setup             =    0.192 sec
--------------
SCF ITERATIONS
--------------
ITER       Energy         Delta-E        Max-DP      RMS-DP      [F,P]     Damp
               ***  Starting incremental Fock matrix formation  ***
  0   -246.9558813020   0.000000000000 0.14061542  0.00430042  0.2683106 0.7000
  1   -247.0485547624  -0.092673460453 0.07682468  0.00274440  0.1032673 0.7000
                               ***Turning on DIIS***
  2   -247.0814801401  -0.032925377661 0.08056336  0.00364970  0.0395919 0.0000
  3   -247.1366928035  -0.055212663400 0.07006123  0.00212804  0.0522065 0.0000
  4   -247.1476614060  -0.010968602463 0.01046220  0.00054698  0.0210699 0.0000
                      *** Initiating the SOSCF procedure ***
                           *** Shutting down DIIS ***
                      *** Re-Reading the Fockian *** 
                      *** Removing any level shift *** 
ITER      Energy       Delta-E        Grad      Rot      Max-DP    RMS-DP
  5   -247.14883288  -0.0011714720  0.000748  0.000748  0.004496  0.000171
               *** Restarting incremental Fock matrix formation ***
  6   -247.14888661  -0.0000537296  0.000535  0.001703  0.002794  0.000121
  7   -247.14888601   0.0000006004  0.000646  0.000764  0.001183  0.000044
  8   -247.14889280  -0.0000067893  0.000189  0.000545  0.000725  0.000029
  9   -247.14889241   0.0000003855  0.000293  0.000322  0.000405  0.000015
 10   -247.14889316  -0.0000007475  0.000039  0.000168  0.000146  0.000005
 11   -247.14889313   0.0000000278  0.000067  0.000117  0.000108  0.000003
 12   -247.14889319  -0.0000000551  0.000005  0.000015  0.000021  0.000001
 13   -247.14889318   0.0000000026  0.000007  0.000009  0.000013  0.000001
                  ***Gradient check signals convergence***
              ***Rediagonalizing the Fockian in SOSCF/NRSCF***

               *****************************************************
               *                     SUCCESS                       *
               *           SCF CONVERGED AFTER  14 CYCLES          *
               *****************************************************

Setting up the final grid:

General Integration Accuracy     IntAcc      ...  4.670
Radial Grid Type                 RadialGrid  ... Gauss-Chebyshev
Angular Grid (max. acc.)         AngularGrid ... Lebedev-302
Angular grid pruning method      GridPruning ... 3 (G Style)
Weight generation scheme         WeightScheme... Becke
Basis function cutoff            BFCut       ...    1.0000e-11
Integration weight cutoff        WCut        ...    1.0000e-14
Grids for H and He will be reduced by one unit

# of grid points (after initial pruning)     ...  48030 (   0.0 sec)
# of grid points (after weights+screening)   ...  45288 (   0.0 sec)
nearest neighbour list constructed           ...    0.0 sec
Grid point re-assignment to atoms done       ...    0.0 sec
Grid point division into batches done        ...    0.2 sec
Reduced shell lists constructed in    0.3 sec

Total number of grid points                  ...    45288
Total number of batches                      ...      714
Average number of points per batch           ...       63
Average number of grid points per atom       ...     4529
Average number of shells per batch           ...    39.77 (88.39%)
Average number of basis functions per batch  ...    82.54 (86.89%)
Average number of large shells per batch     ...    32.74 (82.32%)
Average number of large basis fcns per batch ...    68.08 (82.47%)
Maximum spatial batch extension              ...  10.82, 11.88, 21.10 au
Average spatial batch extension              ...   0.23,  0.23,  0.31 au

Final grid set up in    0.3 sec
Final integration                            ... done (   0.1 sec)
Change in XC energy                          ...     0.000326833
Integrated number of electrons               ...    37.999979387
Previous integrated no of electrons          ...    38.002687016
Old exchange energy                            =     -6.429682729 Eh
New exchange energy                            =     -6.429287471 Eh
Exchange energy change after final integration =      0.000395258 Eh
Total energy after final integration           =   -247.148171093 Eh
Final COS-X integration done in                =     0.540 sec

----------------
TOTAL SCF ENERGY
----------------

Total Energy       :         -247.14817109 Eh           -6725.24364 eV

Components:
Nuclear Repulsion  :          156.87894687 Eh            4268.89317 eV
Electronic Energy  :         -404.02711796 Eh          -10994.13681 eV
One Electron Energy:         -645.55440410 Eh          -17566.42840 eV
Two Electron Energy:          241.52728614 Eh            6572.29158 eV

Virial components:
Potential Energy   :         -492.86531111 Eh          -13411.54695 eV
Kinetic Energy     :          245.71714001 Eh            6686.30330 eV
Virial Ratio       :            2.00582390


DFT components:
N(Alpha)           :       18.999989693555 electrons
N(Beta)            :       18.999989693555 electrons
N(Total)           :       37.999979387110 electrons
E(X)               :      -25.564825836408 Eh       
E(C)               :       -1.514813352483 Eh       
E(XC)              :      -27.079639188891 Eh       

---------------
SCF CONVERGENCE
---------------

  Last Energy change         ...   -1.0396e-09  Tolerance :   1.0000e-08
  Last MAX-Density change    ...    2.2030e-13  Tolerance :   1.0000e-07
  Last RMS-Density change    ...    2.3562e-15  Tolerance :   5.0000e-09
  Last Orbital Gradient      ...    3.2388e-07  Tolerance :   1.0000e-05
  Last Orbital Rotation      ...    1.4156e-06  Tolerance :   1.0000e-05

             **** THE GBW FILE WAS UPDATED (g8raf/frag_18_c00001.gbw) ****
             **** DENSITY FILE WAS UPDATED (g8raf/frag_18_c00001.scfp.tmp) ****
             **** ENERGY FILE WAS UPDATED (g8raf/frag_18_c00001.en.tmp) ****
----------------
ORBITAL ENERGIES
----------------

  NO   OCC          E(Eh)            E(eV) 
   0   2.0000     -19.110579      -520.0253 
   1   2.0000     -14.365622      -390.9084 
   2   2.0000     -10.254539      -279.0402 
   3   2.0000     -10.243441      -278.7382 
   4   2.0000     -10.172156      -276.7984 
   5   2.0000      -1.013762       -27.5859 
   6   2.0000      -0.940097       -25.5814 
   7   2.0000      -0.766681       -20.8624 
   8   2.0000      -0.639920       -17.4131 
   9   2.0000      -0.561887       -15.2897 
  10   2.0000      -0.546367       -14.8674 
  11   2.0000      -0.494778       -13.4636 
  12   2.0000      -0.437424       -11.9029 
  13   2.0000      -0.398989       -10.8570 
  14   2.0000      -0.392160       -10.6712 
  15   2.0000      -0.383509       -10.4358 
  16   2.0000      -0.352458        -9.5909 
  17   2.0000      -0.233150        -6.3443 
  18   2.0000      -0.229478        -6.2444 
  19   0.0000      -0.035173        -0.9571 
  20   0.0000       0.032248         0.8775 
  21   0.0000       0.060229         1.6389 
  22   0.0000       0.084799         2.3075 
  23   0.0000       0.113476         3.0878 
  24   0.0000       0.133445         3.6312 
  25   0.0000       0.164674         4.4810 
  26   0.0000       0.242171         6.5898 
  27   0.0000       0.264315         7.1924 
  28   0.0000       0.339202         9.2301 
  29   0.0000       0.381160        10.3719 
  30   0.0000       0.458270        12.4702 
  31   0.0000       0.461613        12.5611 
  32   0.0000       0.466130        12.6841 
  33   0.0000       0.493018        13.4157 
  34   0.0000       0.523384        14.2420 
  35   0.0000       0.541318        14.7300 
  36   0.0000       0.585540        15.9334 
  37   0.0000       0.591081        16.0841 
  38   0.0000       0.601077        16.3561 
  39   0.0000       0.640350        17.4248 
  40   0.0000       0.670402        18.2426 
  41   0.0000       0.700303        19.0562 
  42   0.0000       0.728500        19.8235 
  43   0.0000       0.748484        20.3673 
  44   0.0000       0.791249        21.5310 
  45   0.0000       0.849532        23.1169 
  46   0.0000       0.865026        23.5386 
  47   0.0000       0.928770        25.2731 
  48   0.0000       0.939366        25.5614 
  49   0.0000       0.956045        26.0153 
  50   0.0000       0.974196        26.5092 
  51   0.0000       1.038092        28.2479 
  52   0.0000       1.043379        28.3918 
  53   0.0000       1.078019        29.3344 
  54   0.0000       1.107938        30.1485 
  55   0.0000       1.174848        31.9692 
  56   0.0000       1.182585        32.1798 
  57   0.0000       1.274420        34.6787 
  58   0.0000       1.341531        36.5049 
  59   0.0000       1.425983        38.8030 
  60   0.0000       1.466917        39.9168 
  61   0.0000       1.505421        40.9646 
  62   0.0000       1.540473        41.9184 
  63   0.0000       1.566345        42.6224 
  64   0.0000       1.588856        43.2350 
  65   0.0000       1.603719        43.6394 
  66   0.0000       1.646667        44.8081 
  67   0.0000       1.662339        45.2345 
  68   0.0000       1.701334        46.2956 
  69   0.0000       1.725442        46.9517 
  70   0.0000       1.809929        49.2507 
  71   0.0000       1.812604        49.3235 
  72   0.0000       1.840663        50.0870 
  73   0.0000       1.877329        51.0847 
  74   0.0000       1.917727        52.1840 
  75   0.0000       1.969182        53.5842 
  76   0.0000       2.000957        54.4488 
  77   0.0000       2.073645        56.4267 
  78   0.0000       2.127333        57.8877 
  79   0.0000       2.160322        58.7854 
  80   0.0000       2.281813        62.0913 
  81   0.0000       2.314036        62.9681 
  82   0.0000       2.426264        66.0220 
  83   0.0000       2.493783        67.8593 
  84   0.0000       2.565676        69.8156 
  85   0.0000       2.597602        70.6843 
  86   0.0000       2.646246        72.0080 
  87   0.0000       2.718071        73.9625 
  88   0.0000       2.746737        74.7425 
  89   0.0000       2.818193        76.6869 
  90   0.0000       3.001826        81.6838 
  91   0.0000       3.076311        83.7107 
  92   0.0000       3.214406        87.4684 
  93   0.0000       3.436437        93.5102 
  94   0.0000       3.474705        94.5515 
-------
TIMINGS
-------

Total SCF time: 0 days 0 hours 0 min 8 sec 

Total time                  ....       8.607 sec
Sum of individual times     ....       8.566 sec  ( 99.5%)

Fock matrix formation       ....       7.708 sec  ( 89.6%)
  Split-RI-J                ....       2.150 sec  ( 27.9% of F)
  Chain of spheres X        ....       4.806 sec  ( 62.3% of F)
  COS-X 1 center corr.      ....       0.000 sec  (  0.0% of F)
  XC integration            ....       0.629 sec  (  8.2% of F)
    Basis function eval.    ....       0.236 sec  ( 37.5% of XC)
    Density eval.           ....       0.089 sec  ( 14.1% of XC)
    XC-Functional eval.     ....       0.038 sec  (  6.0% of XC)
    XC-Potential eval.      ....       0.179 sec  ( 28.5% of XC)
Diagonalization             ....       0.015 sec  (  0.2%)
Density matrix formation    ....       0.003 sec  (  0.0%)
Population analysis         ....       0.000 sec  (  0.0%)
Initial guess               ....       0.170 sec  (  2.0%)
Orbital Transformation      ....       0.000 sec  (  0.0%)
Orbital Orthonormalization  ....       0.000 sec  (  0.0%)
DIIS solution               ....       0.004 sec  (  0.1%)
SOSCF solution              ....       0.100 sec  (  1.2%)
Grid generation             ....       0.565 sec  (  6.6%)


-------------------------------------------------------------------------------
                          DFT DISPERSION CORRECTION                            
                                                                               
                              DFTD3 V3.1  Rev 1                                
                          USING Becke-Johnson damping                          
-------------------------------------------------------------------------------
The B3LYP functional is recognized
Active option DFTDOPT                   ...         4   

molecular C6(AA) [au] = 984.740838 


            DFT-D V3
 parameters
 s6 scaling factor         :     1.0000 
 a1 scaling factor         :     0.3981 
 s8 scaling factor         :     1.9889 
 a2 scaling factor         :     4.4211 
 ad hoc parameters k1-k3   :    16.0000     1.3333    -4.0000 

 Edisp/kcal,au: -7.217902623880  -0.011502458771 
 E6   /kcal   :  -3.473293139 
 E8   /kcal   :  -3.744609485 
 % E8         :  51.879468041 

-------------------------   ----------------
Dispersion correction           -0.011502459
-------------------------   ----------------


-------------------------   --------------------
FINAL SINGLE POINT ENERGY      -247.159673552094
-------------------------   --------------------



           ************************************************************
           *        Program running with 6 parallel MPI-processes     *
           *              working on a common directory               *
           ************************************************************
------------------------------------------------------------------------------
                         ORCA SCF GRADIENT CALCULATION
------------------------------------------------------------------------------

Gradient of the Kohn-Sham DFT energy:
Kohn-Sham wavefunction type      ... RKS
Hartree-Fock exchange scaling    ...    0.200
Number of operators              ...    1
Number of atoms                  ...   10
Basis set dimensions             ...   95
Integral neglect threshold       ... 2.5e-11
Integral primitive cutoff        ... 2.5e-12

Nuclear repulsion gradient       ... done
One Electron Gradient            ... done
Pre-screening matrix             ... done
RI-J gradient                    ... done
COSX-gradient                    ... done
Exchange-correlation gradient    ... done
Dispersion correction            ... done

------------------
CARTESIAN GRADIENT
------------------

   1   N   :   -0.003812057   -0.006467137    0.004997488
   2   C   :    0.023686652    0.025574854   -0.000947792
   3   O   :   -0.005084125   -0.011057808    0.000550457
   4   C   :   -0.031778879    0.010034288    0.001195420
   5   C   :    0.023011642   -0.013452723    0.001051605
   6   H   :   -0.000372556   -0.002060864   -0.001985760
   7   H   :   -0.003556559    0.001558774   -0.002431812
   8   H   :   -0.008994105   -0.008912185    0.000490040
   9   H   :    0.003700796    0.002540133   -0.001310221
  10   H   :    0.004620919    0.000895450   -0.001137552

Difference to translation invariance:
           :    0.0014217289   -0.0013472166    0.0004718741

Norm of the cartesian gradient     ...    0.0591997703
RMS gradient                       ...    0.0108083499
MAX gradient                       ...    0.0317788787

-------
TIMINGS
-------

Total SCF gradient time            ...        1.747 sec

One electron gradient       ....       0.034 sec  (  1.9%)
Prescreening matrices       ....       0.054 sec  (  3.1%)
RI-J Coulomb gradient       ....       0.273 sec  ( 15.6%)
COSX gradient               ....       0.590 sec  ( 33.8%)
XC gradient                 ....       0.353 sec  ( 20.2%)
------------------------------------------------------------------------------
                         ORCA GEOMETRY RELAXATION STEP
------------------------------------------------------------------------------

Reading the OPT-File                    .... done
Getting information on internals        .... done
Copying old internal coords+grads       .... done
Making the new internal coordinates     .... (new redundants).... done
Validating the new internal coordinates .... (new redundants).... done
Calculating the B-matrix                .... done
Calculating the G,G- and P matrices     .... done
Transforming gradient to internals      .... done
Projecting the internal gradient        .... done
Number of atoms                         ....  10
Number of internal coordinates          ....  33
Current Energy                          ....  -247.159673552 Eh
Current gradient norm                   ....     0.059199770 Eh/bohr
Maximum allowed component of the step   ....  0.300
Current trust radius                    ....  0.300
Evaluating the initial hessian          ....  (Almloef) done
Projecting the Hessian                  .... done
Forming the augmented Hessian           .... done
Diagonalizing the augmented Hessian     .... done
Last element of RFO vector              ....  0.994253149
Lowest eigenvalues of augmented Hessian:
 -0.003066842  0.014390748  0.014398888  0.028628726  0.029367334
Length of the computed step             ....  0.107673330
The final length of the internal step   ....  0.107673330
Converting the step to cartesian space:
 Initial RMS(Int)=    0.0187435209
Transforming coordinates:
 Iter   0:  RMS(Cart)=    0.0256154472 RMS(Int)=    0.0186924740
 Iter   1:  RMS(Cart)=    0.0005147208 RMS(Int)=    0.0004941173
 Iter   2:  RMS(Cart)=    0.0000146017 RMS(Int)=    0.0000140791
 Iter   3:  RMS(Cart)=    0.0000004327 RMS(Int)=    0.0000004604
 Iter   4:  RMS(Cart)=    0.0000000137 RMS(Int)=    0.0000000166
done
Storing new coordinates                 .... done

                                .--------------------.
          ----------------------|Geometry convergence|-------------------------
          Item                value                   Tolerance       Converged
          ---------------------------------------------------------------------
          RMS gradient        0.0067420631            0.0020000000      NO
          MAX gradient        0.0255460840            0.0030000000      NO
          RMS step            0.0187435209            0.0200000000      YES
          MAX step            0.0476435302            0.0300000000      NO
          ........................................................
          Max(Bonds)      0.0186      Max(Angles)    1.64
          Max(Dihed)        2.73      Max(Improp)    0.00
          ---------------------------------------------------------------------

The optimization has not yet converged - more geometry cycles are needed


    ---------------------------------------------------------------------------
                         Redundant Internal Coordinates
                            (Angstroem and degrees)

        Definition                    Value    dE/dq     Step     New-Value
    ----------------------------------------------------------------------------
     1. B(O   2,C   1)                1.2255  0.007722 -0.0040    1.2215   
     2. B(C   3,C   1)                1.4736  0.008568 -0.0098    1.4638   
     3. B(C   4,N   0)                1.3696 -0.009312  0.0081    1.3777   
     4. B(C   4,C   3)                1.3364 -0.025546  0.0177    1.3541   
     5. B(H   5,N   0)                1.0162  0.000085 -0.0001    1.0161   
     6. B(H   6,N   0)                1.0193  0.004417 -0.0055    1.0138   
     7. B(H   7,C   1)                1.1009 -0.012276  0.0186    1.1196   
     8. B(H   8,C   3)                1.0845 -0.004230  0.0060    1.0905   
     9. B(H   9,C   4)                1.0910 -0.004527  0.0066    1.0976   
    10. A(H   5,N   0,H   6)          112.01  0.001612    0.28    112.29   
    11. A(C   4,N   0,H   5)          116.12 -0.003017    0.82    116.94   
    12. A(C   4,N   0,H   6)          114.12 -0.002308    0.72    114.84   
    13. A(O   2,C   1,H   7)          121.98  0.009039   -1.24    120.74   
    14. A(O   2,C   1,C   3)          121.25 -0.012164    1.64    122.89   
    15. A(C   3,C   1,H   7)          116.77  0.003124   -0.40    116.36   
    16. A(C   1,C   3,C   4)          123.84 -0.004609    0.64    124.48   
    17. A(C   1,C   3,H   8)          115.17  0.000484   -0.04    115.12   
    18. A(C   4,C   3,H   8)          120.99  0.004127   -0.60    120.39   
    19. A(C   3,C   4,H   9)          117.79 -0.003177    0.39    118.18   
    20. A(N   0,C   4,C   3)          130.63  0.008380   -1.16    129.47   
    21. A(N   0,C   4,H   9)          111.56 -0.005173    0.73    112.29   
    22. D(C   4,C   3,C   1,H   7)      0.55  0.000072   -0.10      0.45   
    23. D(H   8,C   3,C   1,H   7)   -178.59 -0.000080    0.15   -178.44   
    24. D(C   4,C   3,C   1,O   2)   -179.97  0.000012    0.07   -179.90   
    25. D(H   8,C   3,C   1,O   2)      0.89 -0.000139    0.32      1.21   
    26. D(H   9,C   4,C   3,H   8)      0.88  0.000243   -0.24      0.64   
    27. D(H   9,C   4,N   0,H   5)   -158.29  0.002663   -2.73   -161.02   
    28. D(C   3,C   4,N   0,H   6)    155.91 -0.001780    1.17    157.08   
    29. D(N   0,C   4,C   3,H   8)    179.19  0.001534   -2.15    177.05   
    30. D(C   3,C   4,N   0,H   5)     23.32  0.001425   -0.92     22.41   
    31. D(H   9,C   4,C   3,C   1)   -178.21  0.000119    0.02   -178.19   
    32. D(N   0,C   4,C   3,C   1)      0.10  0.001410   -1.89     -1.78   
    33. D(H   9,C   4,N   0,H   6)    -25.69 -0.000542   -0.65    -26.34   
    ----------------------------------------------------------------------------

         *************************************************************
         *                GEOMETRY OPTIMIZATION CYCLE   2            *
         *************************************************************
---------------------------------
CARTESIAN COORDINATES (ANGSTROEM)
---------------------------------
  N     -3.984322    1.707154   -0.014217
  C     -2.435823   -0.934281   -0.045690
  O     -1.897456   -2.030706   -0.040664
  C     -3.887171   -0.760928    0.032960
  C     -4.517519    0.437528    0.027966
  H     -3.044916    1.799518   -0.390405
  H     -4.611631    2.420674   -0.367885
  H     -1.825801    0.002542   -0.106105
  H     -4.459888   -1.685056    0.117810
  H     -5.611073    0.448255    0.122029

----------------------------
CARTESIAN COORDINATES (A.U.)
----------------------------
  NO LB      ZA    FRAG     MASS         X           Y           Z
   0 N     7.0000    0    14.007   -7.529278    3.226054   -0.026867
   1 C     6.0000    0    12.011   -4.603038   -1.765534   -0.086342
   2 O     8.0000    0    15.999   -3.585673   -3.837478   -0.076843
   3 C     6.0000    0    12.011   -7.345688   -1.437946    0.062286
   4 C     6.0000    0    12.011   -8.536874    0.826807    0.052849
   5 H     1.0000    0     1.008   -5.754056    3.400597   -0.737759
   6 H     1.0000    0     1.008   -8.714719    4.574411   -0.695202
   7 H     1.0000    0     1.008   -3.450264    0.004804   -0.200509
   8 H     1.0000    0     1.008   -8.427967   -3.184294    0.222629
   9 H     1.0000    0     1.008  -10.603391    0.847078    0.230602

--------------------------------
INTERNAL COORDINATES (ANGSTROEM)
--------------------------------
 N      0   0   0     0.000000000000     0.00000000     0.00000000
 C      1   0   0     3.062028415845     0.00000000     0.00000000
 O      2   1   0     1.221479662040   175.69204864     0.00000000
 C      2   1   3     1.463778173970    52.83380926     7.60626184
 C      4   2   1     1.354127432237   124.48315971     0.77756913
 H      1   2   3     1.016136670355    66.86389480   192.44179911
 H      1   2   3     1.013759021130   156.42015336   285.37541079
 H      2   1   7     1.119559440524    63.52960649   112.65063217
 H      4   2   1     1.090512237230   115.12181778   181.89003742
 H      5   4   2     1.097644091048   118.17072116   181.80936573

---------------------------
INTERNAL COORDINATES (A.U.)
---------------------------
 N      0   0   0     0.000000000000     0.00000000     0.00000000
 C      1   0   0     5.786395120232     0.00000000     0.00000000
 O      2   1   0     2.308262039410   175.69204864     0.00000000
 C      2   1   3     2.766139869615    52.83380926     7.60626184
 C      4   2   1     2.558929997357   124.48315971     0.77756913
 H      1   2   3     1.920220021605    66.86389480   192.44179911
 H      1   2   3     1.915726915727   156.42015336   285.37541079
 H      2   1   7     2.115660733236    63.52960649   112.65063217
 H      4   2   1     2.060769474055   115.12181778   181.89003742
 H      5   4   2     2.074246724597   118.17072116   181.80936573



           ************************************************************
           *        Program running with 6 parallel MPI-processes     *
           *              working on a common directory               *
           ************************************************************
 One Electron integrals                  ... done
 Pre-screening matrix                    ... done


           ************************************************************
           *        Program running with 6 parallel MPI-processes     *
           *              working on a common directory               *
           ************************************************************

Diagonalization of the overlap matrix:
Smallest eigenvalue                        ... 1.900e-03
Time for diagonalization                   ...    0.003 sec
Threshold for overlap eigenvalues          ... 1.000e-08
Number of eigenvalues below threshold      ... 0
Time for construction of square roots      ...    0.001 sec
Total time needed                          ...    0.004 sec

-------------------
DFT GRID GENERATION
-------------------

General Integration Accuracy     IntAcc      ...  4.340
Radial Grid Type                 RadialGrid  ... Gauss-Chebyshev
Angular Grid (max. acc.)         AngularGrid ... Lebedev-110
Angular grid pruning method      GridPruning ... 3 (G Style)
Weight generation scheme         WeightScheme... Becke
Basis function cutoff            BFCut       ...    1.0000e-11
Integration weight cutoff        WCut        ...    1.0000e-14
Grids for H and He will be reduced by one unit

# of grid points (after initial pruning)     ...  12356 (   0.0 sec)
# of grid points (after weights+screening)   ...  11787 (   0.0 sec)
nearest neighbour list constructed           ...    0.0 sec
Grid point re-assignment to atoms done       ...    0.0 sec
Grid point division into batches done        ...    0.0 sec
Reduced shell lists constructed in    0.0 sec

Total number of grid points                  ...    11787
Total number of batches                      ...      188
Average number of points per batch           ...       62
Average number of grid points per atom       ...     1179
Average number of shells per batch           ...    40.76 (90.57%)
Average number of basis functions per batch  ...    84.88 (89.35%)
Average number of large shells per batch     ...    33.97 (83.35%)
Average number of large basis fcns per batch ...    70.70 (83.29%)
Maximum spatial batch extension              ...   9.01, 12.41, 19.90 au
Average spatial batch extension              ...   0.32,  0.37,  0.53 au

Time for grid setup =    0.049 sec

--------------------
COSX GRID GENERATION
--------------------

General Integration Accuracy     IntAcc      ...  3.340
Radial Grid Type                 RadialGrid  ... Gauss-Chebyshev
Angular Grid (max. acc.)         AngularGrid ... Lebedev-50
Angular grid pruning method      GridPruning ... 3 (G Style)
Weight generation scheme         WeightScheme... Becke
Basis function cutoff            BFCut       ...    1.0000e-11
Integration weight cutoff        WCut        ...    1.0000e-14
Grids for H and He will be reduced by one unit

# of grid points (after initial pruning)     ...   4486 (   0.0 sec)
# of grid points (after weights+screening)   ...   4298 (   0.0 sec)
nearest neighbour list constructed           ...    0.0 sec
Grid point re-assignment to atoms done       ...    0.0 sec
Grid point division into batches done        ...    0.0 sec
Reduced shell lists constructed in    0.0 sec

Total number of grid points                  ...     4298
Total number of batches                      ...       73
Average number of points per batch           ...       58
Average number of grid points per atom       ...      430
Average number of shells per batch           ...    39.64 (88.10%)
Average number of basis functions per batch  ...    82.79 (87.14%)
Average number of large shells per batch     ...    34.43 (86.85%)
Average number of large basis fcns per batch ...    72.57 (87.66%)
Maximum spatial batch extension              ...   5.91,  8.78, 17.64 au
Average spatial batch extension              ...   0.41,  0.47,  0.94 au

Overlap Fitting                  UseSFitting ... on
Constructing numerical overlap ... done (      0.0 sec)
Inverting numerical overlap    ... done (      0.0 sec)
Obtaining analytic overlap     ... done (      0.0 sec)
Final contraction and storage  ... done (      0.0 sec)


General Integration Accuracy     IntAcc      ...  3.670
Radial Grid Type                 RadialGrid  ... Gauss-Chebyshev
Angular Grid (max. acc.)         AngularGrid ... Lebedev-50
Angular grid pruning method      GridPruning ... 3 (G Style)
Weight generation scheme         WeightScheme... Becke
Basis function cutoff            BFCut       ...    1.0000e-11
Integration weight cutoff        WCut        ...    1.0000e-14
Grids for H and He will be reduced by one unit

# of grid points (after initial pruning)     ...   5734 (   0.0 sec)
# of grid points (after weights+screening)   ...   5481 (   0.0 sec)
nearest neighbour list constructed           ...    0.0 sec
Grid point re-assignment to atoms done       ...    0.0 sec
Grid point division into batches done        ...    0.0 sec
Reduced shell lists constructed in    0.0 sec

Total number of grid points                  ...     5481
Total number of batches                      ...       90
Average number of points per batch           ...       60
Average number of grid points per atom       ...      548
Average number of shells per batch           ...    39.88 (88.61%)
Average number of basis functions per batch  ...    83.12 (87.50%)
Average number of large shells per batch     ...    34.00 (85.27%)
Average number of large basis fcns per batch ...    71.50 (86.02%)
Maximum spatial batch extension              ...   6.14, 10.21, 18.44 au
Average spatial batch extension              ...   0.36,  0.40,  0.79 au

Overlap Fitting                  UseSFitting ... on
Constructing numerical overlap ... done (      0.0 sec)
Inverting numerical overlap    ... done (      0.0 sec)
Obtaining analytic overlap     ... done (      0.0 sec)
Final contraction and storage  ... done (      0.0 sec)


General Integration Accuracy     IntAcc      ...  4.010
Radial Grid Type                 RadialGrid  ... Gauss-Chebyshev
Angular Grid (max. acc.)         AngularGrid ... Lebedev-110
Angular grid pruning method      GridPruning ... 3 (G Style)
Weight generation scheme         WeightScheme... Becke
Basis function cutoff            BFCut       ...    1.0000e-11
Integration weight cutoff        WCut        ...    1.0000e-14
Grids for H and He will be reduced by one unit

# of grid points (after initial pruning)     ...  10634 (   0.0 sec)
# of grid points (after weights+screening)   ...  10142 (   0.0 sec)
nearest neighbour list constructed           ...    0.0 sec
Grid point re-assignment to atoms done       ...    0.0 sec
Grid point division into batches done        ...    0.0 sec
Reduced shell lists constructed in    0.0 sec

Total number of grid points                  ...    10142
Total number of batches                      ...      164
Average number of points per batch           ...       61
Average number of grid points per atom       ...     1014
Average number of shells per batch           ...    40.79 (90.65%)
Average number of basis functions per batch  ...    84.93 (89.40%)
Average number of large shells per batch     ...    34.34 (84.19%)
Average number of large basis fcns per batch ...    71.45 (84.13%)
Maximum spatial batch extension              ...   8.36, 11.59, 20.08 au
Average spatial batch extension              ...   0.34,  0.39,  0.62 au

Overlap Fitting                  UseSFitting ... on
Constructing numerical overlap ... done (      0.0 sec)
Inverting numerical overlap    ... done (      0.0 sec)
Obtaining analytic overlap     ... done (      0.0 sec)
Final contraction and storage  ... done (      0.0 sec)

Time for X-Grid setup             =    0.190 sec
--------------
SCF ITERATIONS
--------------
ITER       Energy         Delta-E        Max-DP      RMS-DP      [F,P]     Damp
               ***  Starting incremental Fock matrix formation  ***
  0   -247.1498451622   0.000000000000 0.00390349  0.00019900  0.0102350 0.7000
                      *** Initiating the SOSCF procedure ***
                      *** Re-Reading the Fockian *** 
                      *** Removing any level shift *** 
ITER      Energy       Delta-E        Grad      Rot      Max-DP    RMS-DP
  1   -247.15014655  -0.0003013862  0.000840  0.000840  0.011675  0.000593
               *** Restarting incremental Fock matrix formation ***
  2   -247.15092767  -0.0007811266  0.000653  0.002840  0.003620  0.000176
  3   -247.15093399  -0.0000063174  0.001520  0.003672  0.002735  0.000105
  4   -247.15095603  -0.0000220360  0.000443  0.001085  0.001542  0.000059
  5   -247.15095539   0.0000006357  0.000540  0.000644  0.000698  0.000028
  6   -247.15095900  -0.0000036123  0.000081  0.000339  0.000392  0.000014
  7   -247.15095900   0.0000000019  0.000128  0.000171  0.000259  0.000008
  8   -247.15095916  -0.0000001565  0.000023  0.000038  0.000097  0.000004
  9   -247.15095917  -0.0000000105  0.000024  0.000017  0.000055  0.000002
 10   -247.15095918  -0.0000000054  0.000003  0.000012  0.000012  0.000001
                  ***Gradient check signals convergence***
              ***Rediagonalizing the Fockian in SOSCF/NRSCF***

               *****************************************************
               *                     SUCCESS                       *
               *           SCF CONVERGED AFTER  11 CYCLES          *
               *****************************************************

Setting up the final grid:

General Integration Accuracy     IntAcc      ...  4.670
Radial Grid Type                 RadialGrid  ... Gauss-Chebyshev
Angular Grid (max. acc.)         AngularGrid ... Lebedev-302
Angular grid pruning method      GridPruning ... 3 (G Style)
Weight generation scheme         WeightScheme... Becke
Basis function cutoff            BFCut       ...    1.0000e-11
Integration weight cutoff        WCut        ...    1.0000e-14
Grids for H and He will be reduced by one unit

# of grid points (after initial pruning)     ...  48030 (   0.0 sec)
# of grid points (after weights+screening)   ...  45309 (   0.0 sec)
nearest neighbour list constructed           ...    0.0 sec
Grid point re-assignment to atoms done       ...    0.0 sec
Grid point division into batches done        ...    0.2 sec
Reduced shell lists constructed in    0.3 sec

Total number of grid points                  ...    45309
Total number of batches                      ...      714
Average number of points per batch           ...       63
Average number of grid points per atom       ...     4531
Average number of shells per batch           ...    39.78 (88.41%)
Average number of basis functions per batch  ...    82.68 (87.04%)
Average number of large shells per batch     ...    32.72 (82.24%)
Average number of large basis fcns per batch ...    68.02 (82.26%)
Maximum spatial batch extension              ...  10.81, 10.11, 21.46 au
Average spatial batch extension              ...   0.23,  0.23,  0.32 au

Final grid set up in    0.3 sec
Final integration                            ... done (   0.1 sec)
Change in XC energy                          ...     0.000310524
Integrated number of electrons               ...    37.999977836
Previous integrated no of electrons          ...    38.002321946
Old exchange energy                            =     -6.425532524 Eh
New exchange energy                            =     -6.425139830 Eh
Exchange energy change after final integration =      0.000392693 Eh
Total energy after final integration           =   -247.150255960 Eh
Final COS-X integration done in                =     0.616 sec
Total Energy       :         -247.15025596 Eh           -6725.30037 eV
  Last Energy change         ...   -1.8862e-09  Tolerance :   1.0000e-08
  Last MAX-Density change    ...    3.1086e-15  Tolerance :   1.0000e-07
             **** THE GBW FILE WAS UPDATED (g8raf/frag_18_c00001.gbw) ****
             **** DENSITY FILE WAS UPDATED (g8raf/frag_18_c00001.scfp.tmp) ****
             **** ENERGY FILE WAS UPDATED (g8raf/frag_18_c00001.en.tmp) ****
Total SCF time: 0 days 0 hours 0 min 7 sec 


-------------------------------------------------------------------------------
                          DFT DISPERSION CORRECTION                            
                                                                               
                              DFTD3 V3.1  Rev 1                                
                          USING Becke-Johnson damping                          
-------------------------------------------------------------------------------
-------------------------   ----------------
Dispersion correction           -0.011466503
-------------------------   ----------------


-------------------------   --------------------
FINAL SINGLE POINT ENERGY      -247.161722463203
-------------------------   --------------------



           ************************************************************
           *        Program running with 6 parallel MPI-processes     *
           *              working on a common directory               *
           ************************************************************
------------------------------------------------------------------------------
                         ORCA SCF GRADIENT CALCULATION
------------------------------------------------------------------------------

Gradient of the Kohn-Sham DFT energy:
Kohn-Sham wavefunction type      ... RKS
Hartree-Fock exchange scaling    ...    0.200
Number of operators              ...    1
Number of atoms                  ...   10
Basis set dimensions             ...   95
Integral neglect threshold       ... 2.5e-11
Integral primitive cutoff        ... 2.5e-12

Nuclear repulsion gradient       ... done
One Electron Gradient            ... done
Pre-screening matrix             ... done
RI-J gradient                    ... done
COSX-gradient                    ... done
Exchange-correlation gradient    ... done
Dispersion correction            ... done

------------------
CARTESIAN GRADIENT
------------------

   1   N   :   -0.001392007    0.003411289    0.002920439
   2   C   :    0.010963505    0.008262343   -0.000443072
   3   O   :   -0.003251937   -0.004773522    0.000234398
   4   C   :   -0.014046800    0.000815713    0.000683552
   5   C   :    0.009619180   -0.005633380   -0.000913189
   6   H   :    0.000095621   -0.000489580   -0.001722814
   7   H   :    0.000025407   -0.001055423   -0.000757269
   8   H   :   -0.002252551   -0.001510901    0.000208200
   9   H   :    0.002063659   -0.000834392   -0.000254178
  10   H   :   -0.000684435    0.000442367    0.000176295

Difference to translation invariance:
           :    0.0011396419   -0.0013654874    0.0001323603

Norm of the cartesian gradient     ...    0.0242021429
RMS gradient                       ...    0.0044186865
MAX gradient                       ...    0.0140468002

-------
TIMINGS
-------

Total SCF gradient time            ...        1.798 sec

One electron gradient       ....       0.016 sec  (  0.9%)
Prescreening matrices       ....       0.055 sec  (  3.1%)
RI-J Coulomb gradient       ....       0.275 sec  ( 15.3%)
COSX gradient               ....       0.609 sec  ( 33.8%)
XC gradient                 ....       0.424 sec  ( 23.6%)
------------------------------------------------------------------------------
                         ORCA GEOMETRY RELAXATION STEP
------------------------------------------------------------------------------

Reading the OPT-File                    .... done
Getting information on internals        .... done
Copying old internal coords+grads       .... done
Making the new internal coordinates     .... (new redundants).... done
Validating the new internal coordinates .... (new redundants).... done
Calculating the B-matrix                .... done
Calculating the G,G- and P matrices     .... done
Transforming gradient to internals      .... done
Projecting the internal gradient        .... done
Number of atoms                         ....  10
Number of internal coordinates          ....  33
Current Energy                          ....  -247.161722463 Eh
Current gradient norm                   ....     0.024202143 Eh/bohr
Maximum allowed component of the step   ....  0.300
Current trust radius                    ....  0.300
Updating the Hessian (BFGS)             .... done
Forming the augmented Hessian           .... done
Diagonalizing the augmented Hessian     .... done
Last element of RFO vector              ....  0.995956086
Lowest eigenvalues of augmented Hessian:
 -0.000912834  0.014396872  0.014411825  0.028650585  0.028983447
Length of the computed step             ....  0.090206170
The final length of the internal step   ....  0.090206170
Converting the step to cartesian space:
 Initial RMS(Int)=    0.0157028786
Transforming coordinates:
 Iter   0:  RMS(Cart)=    0.0265002218 RMS(Int)=    1.0922295271
 Iter   1:  RMS(Cart)=    0.0004757320 RMS(Int)=    0.0004861269
 Iter   2:  RMS(Cart)=    0.0000163079 RMS(Int)=    0.0000143151
 Iter   3:  RMS(Cart)=    0.0000006169 RMS(Int)=    0.0000006725
 Iter   4:  RMS(Cart)=    0.0000000256 RMS(Int)=    0.0000000259
done
Storing new coordinates                 .... done

                                .--------------------.
          ----------------------|Geometry convergence|-------------------------
          Item                value                   Tolerance       Converged
          ---------------------------------------------------------------------
          Energy change      -0.0020489111            0.0001000000      NO
          RMS gradient        0.0024756236            0.0020000000      NO
          MAX gradient        0.0066293070            0.0030000000      NO
          RMS step            0.0157028786            0.0200000000      YES
          MAX step            0.0424926116            0.0300000000      NO
          ........................................................
          Max(Bonds)      0.0098      Max(Angles)    1.56
          Max(Dihed)        2.43      Max(Improp)    0.00
          ---------------------------------------------------------------------

The optimization has not yet converged - more geometry cycles are needed


    ---------------------------------------------------------------------------
                         Redundant Internal Coordinates
                            (Angstroem and degrees)

        Definition                    Value    dE/dq     Step     New-Value
    ----------------------------------------------------------------------------
     1. B(O   2,C   1)                1.2215  0.002643 -0.0026    1.2189   
     2. B(C   3,C   1)                1.4638  0.004962 -0.0098    1.4540   
     3. B(C   4,N   0)                1.3777  0.001315 -0.0007    1.3770   
     4. B(C   4,C   3)                1.3541 -0.005658  0.0081    1.3623   
     5. B(H   5,N   0)                1.0161  0.000478 -0.0009    1.0152   
     6. B(H   6,N   0)                1.0138 -0.000297 -0.0001    1.0136   
     7. B(H   7,C   1)                1.1196 -0.002353  0.0077    1.1272   
     8. B(H   8,C   3)                1.0905 -0.000467  0.0018    1.0923   
     9. B(H   9,C   4)                1.0976  0.000835 -0.0010    1.0966   
    10. A(H   5,N   0,H   6)          112.27  0.000336    0.52    112.79   
    11. A(C   4,N   0,H   5)          116.93 -0.000802    0.63    117.56   
    12. A(C   4,N   0,H   6)          114.82 -0.001500    0.80    115.62   
    13. A(O   2,C   1,H   7)          120.74  0.004681   -1.12    119.63   
    14. A(O   2,C   1,C   3)          122.89 -0.006629    1.56    124.45   
    15. A(C   3,C   1,H   7)          116.36  0.001948   -0.44    115.92   
    16. A(C   1,C   3,C   4)          124.48 -0.001813    0.45    124.94   
    17. A(C   1,C   3,H   8)          115.12 -0.001322    0.34    115.47   
    18. A(C   4,C   3,H   8)          120.39  0.003133   -0.80    119.59   
    19. A(C   3,C   4,H   9)          118.17 -0.002023    0.43    118.60   
    20. A(N   0,C   4,C   3)          129.46  0.004926   -1.17    128.29   
    21. A(N   0,C   4,H   9)          112.28 -0.002888    0.71    112.99   
    22. D(C   4,C   3,C   1,H   7)      0.45  0.000099   -0.60     -0.15   
    23. D(H   8,C   3,C   1,H   7)   -178.44  0.000152   -0.80   -179.24   
    24. D(C   4,C   3,C   1,O   2)   -179.90  0.000080   -0.51   -180.41   
    25. D(H   8,C   3,C   1,O   2)      1.21  0.000134   -0.71      0.50   
    26. D(H   9,C   4,C   3,H   8)      0.64  0.000287   -0.56      0.08   
    27. D(H   9,C   4,N   0,H   5)   -161.02  0.001482   -2.43   -163.46   
    28. D(C   3,C   4,N   0,H   6)    157.09 -0.000867    0.57    157.66   
    29. D(N   0,C   4,C   3,H   8)    177.05  0.000498   -1.21    175.83   
    30. D(C   3,C   4,N   0,H   5)     22.40  0.001276   -1.81     20.59   
    31. D(H   9,C   4,C   3,C   1)   -178.19  0.000394   -0.79   -178.98   
    32. D(N   0,C   4,C   3,C   1)     -1.78  0.000604   -1.44     -3.22   
    33. D(H   9,C   4,N   0,H   6)    -26.33 -0.000660   -0.05    -26.38   
    ----------------------------------------------------------------------------

         *************************************************************
         *                GEOMETRY OPTIMIZATION CYCLE   3            *
         *************************************************************
---------------------------------
CARTESIAN COORDINATES (ANGSTROEM)
---------------------------------
  N     -3.983914    1.698342   -0.017573
  C     -2.445516   -0.936058   -0.052457
  O     -1.876964   -2.014043   -0.030511
  C     -3.886617   -0.764212    0.035818
  C     -4.531636    0.435557    0.020213
  H     -3.029571    1.785975   -0.352589
  H     -4.591699    2.428640   -0.370738
  H     -1.840916    0.011088   -0.142146
  H     -4.464269   -1.685849    0.135515
  H     -5.624498    0.445260    0.110268

----------------------------
CARTESIAN COORDINATES (A.U.)
----------------------------
  NO LB      ZA    FRAG     MASS         X           Y           Z
   0 N     7.0000    0    14.007   -7.528507    3.209402   -0.033208
   1 C     6.0000    0    12.011   -4.621356   -1.768893   -0.099129
   2 O     8.0000    0    15.999   -3.546947   -3.805990   -0.057658
   3 C     6.0000    0    12.011   -7.344641   -1.444151    0.067687
   4 C     6.0000    0    12.011   -8.563550    0.823083    0.038196
   5 H     1.0000    0     1.008   -5.725060    3.375003   -0.666296
   6 H     1.0000    0     1.008   -8.677053    4.589464   -0.700593
   7 H     1.0000    0     1.008   -3.478826    0.020953   -0.268617
   8 H     1.0000    0     1.008   -8.436247   -3.185793    0.256087
   9 H     1.0000    0     1.008  -10.628762    0.841419    0.208376

--------------------------------
INTERNAL COORDINATES (ANGSTROEM)
--------------------------------
 N      0   0   0     0.000000000000     0.00000000     0.00000000
 C      1   0   0     3.050892772793     0.00000000     0.00000000
 O      2   1   0     1.218928345416   177.00471928     0.00000000
 C      2   1   3     1.453992417676    52.94920621    30.40359440
 C      4   2   1     1.362254501435   124.93813042     1.42957678
 H      1   2   3     1.015226882834    66.21888560   166.55916058
 H      1   2   3     1.013637998943   156.99656456   259.01228245
 H      2   1   7     1.127240205299    62.98877117   107.82352316
 H      4   2   1     1.092262769810   115.46657805   182.33821181
 H      5   4   2     1.096609906767   118.60233861   181.01955947

---------------------------
INTERNAL COORDINATES (A.U.)
---------------------------
 N      0   0   0     0.000000000000     0.00000000     0.00000000
 C      1   0   0     5.765351804539     0.00000000     0.00000000
 O      2   1   0     2.303440749710   177.00471928     0.00000000
 C      2   1   3     2.747647470205    52.94920621    30.40359440
 C      4   2   1     2.574287932414   124.93813042     1.42957678
 H      1   2   3     1.918500772351    66.21888560   166.55916058
 H      1   2   3     1.915498216939   156.99656456   259.01228245
 H      2   1   7     2.130175275160    62.98877117   107.82352316
 H      4   2   1     2.064077501219   115.46657805   182.33821181
[...]
Maximum spatial batch extension              ...   8.44,  8.85, 16.01 au
Average spatial batch extension              ...   0.32,  0.34,  0.46 au

Time for grid setup =    0.046 sec

--------------------
COSX GRID GENERATION
--------------------

General Integration Accuracy     IntAcc      ...  3.340
Radial Grid Type                 RadialGrid  ... Gauss-Chebyshev
Angular Grid (max. acc.)         AngularGrid ... Lebedev-50
Angular grid pruning method      GridPruning ... 3 (G Style)
Weight generation scheme         WeightScheme... Becke
Basis function cutoff            BFCut       ...    1.0000e-11
Integration weight cutoff        WCut        ...    1.0000e-14
Grids for H and He will be reduced by one unit

# of grid points (after initial pruning)     ...   4486 (   0.0 sec)
# of grid points (after weights+screening)   ...   4297 (   0.0 sec)
nearest neighbour list constructed           ...    0.0 sec
Grid point re-assignment to atoms done       ...    0.0 sec
Grid point division into batches done        ...    0.0 sec
Reduced shell lists constructed in    0.0 sec

Total number of grid points                  ...     4297
Total number of batches                      ...       72
Average number of points per batch           ...       59
Average number of grid points per atom       ...      430
Average number of shells per batch           ...    39.54 (87.86%)
Average number of basis functions per batch  ...    82.62 (86.96%)
Average number of large shells per batch     ...    34.69 (87.74%)
Average number of large basis fcns per batch ...    72.85 (88.18%)
Maximum spatial batch extension              ...   4.82,  9.25, 17.64 au
Average spatial batch extension              ...   0.37,  0.46,  0.77 au

Overlap Fitting                  UseSFitting ... on
Constructing numerical overlap ... done (      0.0 sec)
Inverting numerical overlap    ... done (      0.0 sec)
Obtaining analytic overlap     ... done (      0.0 sec)
Final contraction and storage  ... done (      0.0 sec)


General Integration Accuracy     IntAcc      ...  3.670
Radial Grid Type                 RadialGrid  ... Gauss-Chebyshev
Angular Grid (max. acc.)         AngularGrid ... Lebedev-50
Angular grid pruning method      GridPruning ... 3 (G Style)
Weight generation scheme         WeightScheme... Becke
Basis function cutoff            BFCut       ...    1.0000e-11
Integration weight cutoff        WCut        ...    1.0000e-14
Grids for H and He will be reduced by one unit

# of grid points (after initial pruning)     ...   5734 (   0.0 sec)
# of grid points (after weights+screening)   ...   5483 (   0.0 sec)
nearest neighbour list constructed           ...    0.0 sec
Grid point re-assignment to atoms done       ...    0.0 sec
Grid point division into batches done        ...    0.0 sec
Reduced shell lists constructed in    0.0 sec

Total number of grid points                  ...     5483
Total number of batches                      ...       89
Average number of points per batch           ...       61
Average number of grid points per atom       ...      548
Average number of shells per batch           ...    39.88 (88.61%)
Average number of basis functions per batch  ...    83.12 (87.50%)
Average number of large shells per batch     ...    34.25 (85.89%)
Average number of large basis fcns per batch ...    71.88 (86.47%)
Maximum spatial batch extension              ...   5.11, 10.22, 19.19 au
Average spatial batch extension              ...   0.35,  0.42,  0.71 au

Overlap Fitting                  UseSFitting ... on
Constructing numerical overlap ... done (      0.0 sec)
Inverting numerical overlap    ... done (      0.0 sec)
Obtaining analytic overlap     ... done (      0.0 sec)
Final contraction and storage  ... done (      0.0 sec)


General Integration Accuracy     IntAcc      ...  4.010
Radial Grid Type                 RadialGrid  ... Gauss-Chebyshev
Angular Grid (max. acc.)         AngularGrid ... Lebedev-110
Angular grid pruning method      GridPruning ... 3 (G Style)
Weight generation scheme         WeightScheme... Becke
Basis function cutoff            BFCut       ...    1.0000e-11
Integration weight cutoff        WCut        ...    1.0000e-14
Grids for H and He will be reduced by one unit

# of grid points (after initial pruning)     ...  10634 (   0.0 sec)
# of grid points (after weights+screening)   ...  10152 (   0.0 sec)
nearest neighbour list constructed           ...    0.0 sec
Grid point re-assignment to atoms done       ...    0.0 sec
Grid point division into batches done        ...    0.0 sec
Reduced shell lists constructed in    0.0 sec

Total number of grid points                  ...    10152
Total number of batches                      ...      162
Average number of points per batch           ...       62
Average number of grid points per atom       ...     1015
Average number of shells per batch           ...    40.86 (90.79%)
Average number of basis functions per batch  ...    85.14 (89.62%)
Average number of large shells per batch     ...    34.75 (85.05%)
Average number of large basis fcns per batch ...    72.46 (85.11%)
Maximum spatial batch extension              ...   7.80, 11.61, 15.46 au
Average spatial batch extension              ...   0.35,  0.37,  0.49 au

Overlap Fitting                  UseSFitting ... on
Constructing numerical overlap ... done (      0.0 sec)
Inverting numerical overlap    ... done (      0.0 sec)
Obtaining analytic overlap     ... done (      0.0 sec)
Final contraction and storage  ... done (      0.0 sec)

Time for X-Grid setup             =    0.206 sec
--------------
SCF ITERATIONS
--------------
ITER       Energy         Delta-E        Max-DP      RMS-DP      [F,P]     Damp
               ***  Starting incremental Fock matrix formation  ***
                      *** Initiating the SOSCF procedure ***
                      *** Re-Reading the Fockian *** 
                      *** Removing any level shift *** 
ITER      Energy       Delta-E        Grad      Rot      Max-DP    RMS-DP
  0   -247.15168293 -247.1516829312  0.000611  0.000611  0.002237  0.000074
               *** Restarting incremental Fock matrix formation ***
  1   -247.15169591  -0.0000129743  0.000136  0.000370  0.000635  0.000027
  2   -247.15169690  -0.0000009930  0.000077  0.000190  0.000301  0.000014
  3   -247.15169674   0.0000001620  0.000125  0.000118  0.000188  0.000009
  4   -247.15169698  -0.0000002394  0.000012  0.000059  0.000069  0.000002
  5   -247.15169697   0.0000000038  0.000026  0.000045  0.000046  0.000002
  6   -247.15169698  -0.0000000075  0.000003  0.000012  0.000014  0.000000
  7   -247.15169698   0.0000000040  0.000004  0.000007  0.000010  0.000000
                  ***Gradient check signals convergence***
              ***Rediagonalizing the Fockian in SOSCF/NRSCF***

               *****************************************************
               *                     SUCCESS                       *
               *           SCF CONVERGED AFTER   8 CYCLES          *
               *****************************************************

Setting up the final grid:

General Integration Accuracy     IntAcc      ...  4.670
Radial Grid Type                 RadialGrid  ... Gauss-Chebyshev
Angular Grid (max. acc.)         AngularGrid ... Lebedev-302
Angular grid pruning method      GridPruning ... 3 (G Style)
Weight generation scheme         WeightScheme... Becke
Basis function cutoff            BFCut       ...    1.0000e-11
Integration weight cutoff        WCut        ...    1.0000e-14
Grids for H and He will be reduced by one unit

# of grid points (after initial pruning)     ...  48030 (   0.0 sec)
# of grid points (after weights+screening)   ...  45317 (   0.0 sec)
nearest neighbour list constructed           ...    0.0 sec
Grid point re-assignment to atoms done       ...    0.0 sec
Grid point division into batches done        ...    0.2 sec
Reduced shell lists constructed in    0.3 sec

Total number of grid points                  ...    45317
Total number of batches                      ...      713
Average number of points per batch           ...       63
Average number of grid points per atom       ...     4532
Average number of shells per batch           ...    39.58 (87.96%)
Average number of basis functions per batch  ...    82.25 (86.58%)
Average number of large shells per batch     ...    32.53 (82.19%)
Average number of large basis fcns per batch ...    67.80 (82.43%)
Maximum spatial batch extension              ...   9.80,  9.97, 21.03 au
Average spatial batch extension              ...   0.23,  0.24,  0.30 au

Final grid set up in    0.3 sec
Final integration                            ... done (   0.1 sec)
Change in XC energy                          ...     0.000272334
Integrated number of electrons               ...    37.999955397
Previous integrated no of electrons          ...    38.002377594
Old exchange energy                            =     -6.425790383 Eh
New exchange energy                            =     -6.425419441 Eh
Exchange energy change after final integration =      0.000370942 Eh
Total energy after final integration           =   -247.151053703 Eh
Final COS-X integration done in                =     0.567 sec

----------------
TOTAL SCF ENERGY
----------------

Total Energy       :         -247.15105370 Eh           -6725.32208 eV

Components:
Nuclear Repulsion  :          156.54573792 Eh            4259.82609 eV
Electronic Energy  :         -403.69679162 Eh          -10985.14817 eV
One Electron Energy:         -644.88767766 Eh          -17548.28585 eV
Two Electron Energy:          241.19088603 Eh            6563.13767 eV

Virial components:
Potential Energy   :         -492.78855352 Eh          -13409.45827 eV
Kinetic Energy     :          245.63749982 Eh            6684.13619 eV
Virial Ratio       :            2.00616174


DFT components:
N(Alpha)           :       18.999977698589 electrons
N(Beta)            :       18.999977698589 electrons
N(Total)           :       37.999955397179 electrons
E(X)               :      -25.552595445199 Eh       
E(C)               :       -1.514194565806 Eh       
E(XC)              :      -27.066790011005 Eh       

---------------
SCF CONVERGENCE
---------------

  Last Energy change         ...   -3.6948e-09  Tolerance :   1.0000e-08
  Last MAX-Density change    ...    3.4569e-15  Tolerance :   1.0000e-07
  Last RMS-Density change    ...    8.8208e-17  Tolerance :   5.0000e-09
  Last Orbital Gradient      ...    1.8619e-07  Tolerance :   1.0000e-05
  Last Orbital Rotation      ...    4.2571e-07  Tolerance :   1.0000e-05

             **** THE GBW FILE WAS UPDATED (g8raf/frag_18_c00001.gbw) ****
             **** DENSITY FILE WAS UPDATED (g8raf/frag_18_c00001.scfp.tmp) ****
             **** ENERGY FILE WAS UPDATED (g8raf/frag_18_c00001.en.tmp) ****
----------------
ORBITAL ENERGIES
----------------

  NO   OCC          E(Eh)            E(eV) 
   0   2.0000     -19.107709      -519.9472 
   1   2.0000     -14.368623      -390.9901 
   2   2.0000     -10.252814      -278.9933 
   3   2.0000     -10.251625      -278.9609 
   4   2.0000     -10.174090      -276.8511 
   5   2.0000      -1.013514       -27.5791 
   6   2.0000      -0.940677       -25.5971 
   7   2.0000      -0.765086       -20.8190 
   8   2.0000      -0.644462       -17.5367 
   9   2.0000      -0.559076       -15.2132 
  10   2.0000      -0.550427       -14.9779 
  11   2.0000      -0.493380       -13.4256 
  12   2.0000      -0.439229       -11.9520 
  13   2.0000      -0.397375       -10.8131 
  14   2.0000      -0.392531       -10.6813 
  15   2.0000      -0.384000       -10.4492 
  16   2.0000      -0.352143        -9.5823 
  17   2.0000      -0.231100        -6.2885 
  18   2.0000      -0.226606        -6.1663 
  19   0.0000      -0.036023        -0.9802 
  20   0.0000       0.031988         0.8704 
  21   0.0000       0.057305         1.5594 
  22   0.0000       0.088045         2.3958 
  23   0.0000       0.111438         3.0324 
  24   0.0000       0.132889         3.6161 
  25   0.0000       0.167620         4.5612 
  26   0.0000       0.246993         6.7210 
  27   0.0000       0.271558         7.3895 
  28   0.0000       0.326117         8.8741 
  29   0.0000       0.384348        10.4586 
  30   0.0000       0.456487        12.4217 
  31   0.0000       0.460789        12.5387 
  32   0.0000       0.466356        12.6902 
  33   0.0000       0.491150        13.3649 
  34   0.0000       0.523047        14.2328 
  35   0.0000       0.529479        14.4079 
  36   0.0000       0.579174        15.7601 
  37   0.0000       0.588722        16.0200 
  38   0.0000       0.603921        16.4335 
  39   0.0000       0.648530        17.6474 
  40   0.0000       0.670465        18.2443 
  41   0.0000       0.693027        18.8582 
  42   0.0000       0.732062        19.9204 
  43   0.0000       0.743522        20.2323 
  44   0.0000       0.789551        21.4848 
  45   0.0000       0.850994        23.1567 
  46   0.0000       0.885337        24.0912 
  47   0.0000       0.931117        25.3370 
  48   0.0000       0.946249        25.7487 
  49   0.0000       0.960133        26.1265 
  50   0.0000       0.990976        26.9658 
  51   0.0000       1.032245        28.0888 
  52   0.0000       1.044269        28.4160 
  53   0.0000       1.081702        29.4346 
  54   0.0000       1.117757        30.4157 
  55   0.0000       1.172832        31.9144 
  56   0.0000       1.181034        32.1376 
  57   0.0000       1.251981        34.0681 
  58   0.0000       1.340742        36.4835 
  59   0.0000       1.426554        38.8185 
  60   0.0000       1.457718        39.6665 
  61   0.0000       1.504947        40.9517 
  62   0.0000       1.547410        42.1072 
  63   0.0000       1.564579        42.5744 
  64   0.0000       1.580328        43.0029 
  65   0.0000       1.606855        43.7247 
  66   0.0000       1.639186        44.6045 
  67   0.0000       1.658633        45.1337 
  68   0.0000       1.698142        46.2088 
  69   0.0000       1.723402        46.8962 
  70   0.0000       1.791574        48.7512 
  71   0.0000       1.820998        49.5519 
  72   0.0000       1.839192        50.0470 
  73   0.0000       1.877634        51.0930 
  74   0.0000       1.909804        51.9684 
  75   0.0000       1.948541        53.0225 
  76   0.0000       1.999641        54.4130 
  77   0.0000       2.075803        56.4855 
  78   0.0000       2.130220        57.9662 
  79   0.0000       2.152263        58.5661 
  80   0.0000       2.248908        61.1959 
  81   0.0000       2.300546        62.6010 
  82   0.0000       2.408755        65.5455 
  83   0.0000       2.466892        67.1275 
  84   0.0000       2.539449        69.1019 
  85   0.0000       2.596648        70.6584 
  86   0.0000       2.639622        71.8278 
  87   0.0000       2.722815        74.0916 
  88   0.0000       2.743150        74.6449 
  89   0.0000       2.839880        77.2771 
  90   0.0000       2.992200        81.4219 
  91   0.0000       3.086577        83.9900 
  92   0.0000       3.243572        88.2621 
  93   0.0000       3.419599        93.0520 
  94   0.0000       3.483239        94.7837 
-------
TIMINGS
-------

Total SCF time: 0 days 0 hours 0 min 5 sec 

Total time                  ....       5.727 sec
Sum of individual times     ....       5.696 sec  ( 99.5%)

Fock matrix formation       ....       4.976 sec  ( 86.9%)
  Split-RI-J                ....       1.415 sec  ( 28.4% of F)
  Chain of spheres X        ....       3.134 sec  ( 63.0% of F)
  COS-X 1 center corr.      ....       0.000 sec  (  0.0% of F)
  XC integration            ....       0.399 sec  (  8.0% of F)
    Basis function eval.    ....       0.146 sec  ( 36.5% of XC)
    Density eval.           ....       0.054 sec  ( 13.5% of XC)
    XC-Functional eval.     ....       0.023 sec  (  5.8% of XC)
    XC-Potential eval.      ....       0.105 sec  ( 26.3% of XC)
Diagonalization             ....       0.002 sec  (  0.0%)
Density matrix formation    ....       0.026 sec  (  0.5%)
Population analysis         ....       0.000 sec  (  0.0%)
Initial guess               ....       0.003 sec  (  0.0%)
Orbital Transformation      ....       0.000 sec  (  0.0%)
Orbital Orthonormalization  ....       0.002 sec  (  0.0%)
DIIS solution               ....       0.000 sec  (  0.0%)
SOSCF solution              ....       0.120 sec  (  2.1%)
Grid generation             ....       0.569 sec  (  9.9%)


-------------------------------------------------------------------------------
                          DFT DISPERSION CORRECTION                            
                                                                               
                              DFTD3 V3.1  Rev 1                                
                          USING Becke-Johnson damping                          
-------------------------------------------------------------------------------
The B3LYP functional is recognized
Active option DFTDOPT                   ...         4   

molecular C6(AA) [au] = 985.077152 


            DFT-D V3
 parameters
 s6 scaling factor         :     1.0000 
 a1 scaling factor         :     0.3981 
 s8 scaling factor         :     1.9889 
 a2 scaling factor         :     4.4211 
 ad hoc parameters k1-k3   :    16.0000     1.3333    -4.0000 

 Edisp/kcal,au: -7.202911742716  -0.011478569284 
 E6   /kcal   :  -3.466012250 
 E8   /kcal   :  -3.736899493 
 % E8         :  51.880400962 

-------------------------   ----------------
Dispersion correction           -0.011478569
-------------------------   ----------------


-------------------------   --------------------
FINAL SINGLE POINT ENERGY      -247.162532272474
-------------------------   --------------------

                                *** OPTIMIZATION RUN DONE ***

                            ***************************************
                            *     ORCA property calculations      *
                            ***************************************

                                    ---------------------
                                    Active property flags
                                    ---------------------
   (+) Dipole Moment


------------------------------------------------------------------------------
                       ORCA ELECTRIC PROPERTIES CALCULATION
------------------------------------------------------------------------------

Dipole Moment Calculation                       ... on
Quadrupole Moment Calculation                   ... off
Polarizability Calculation                      ... off
GBWName                                         ... g8raf/frag_18_c00001.gbw
Electron density file                           ... g8raf/frag_18_c00001.scfp.tmp
The origin for moment calculation is the CENTER OF MASS  = (-6.272055, -0.550008 -0.032718)

-------------
DIPOLE MOMENT
-------------
                                X             Y             Z
Electronic contribution:      1.71647      -2.33868       0.16247
Nuclear contribution   :     -2.76142       4.15797      -0.50212
                        -----------------------------------------
Total Dipole Moment    :     -1.04494       1.81928      -0.33965
                        -----------------------------------------
Magnitude (a.u.)       :      2.12534
Magnitude (Debye)      :      5.40218


Timings for individual modules:

Sum of individual times         ...       70.808 sec (=   1.180 min)
GTO integral calculation        ...        6.358 sec (=   0.106 min)   9.0 %
SCF iterations                  ...       50.929 sec (=   0.849 min)  71.9 %
SCF Gradient evaluation         ...       13.231 sec (=   0.221 min)  18.7 %
Geometry relaxation             ...        0.290 sec (=   0.005 min)   0.4 %
                             ****ORCA TERMINATED NORMALLY****
TOTAL RUN TIME: 0 days 0 hours 1 minutes 12 seconds 514 msec
