
                                 *****************
                                 * O   R   C   A *
                                 *****************

           --- An Ab Initio, DFT and Semiempirical electronic structure package ---

                  #######################################################
                  #                        -***-                        #
                  #  Department of molecular theory and spectroscopy    #
                  #              Directorship: Frank Neese              #
                  # Max Planck Institute for Chemical Energy Conversion #
                  #                  D-45470 Muelheim/Ruhr              #
                  #                       Germany                       #
                  #                                                     #
                  #                  All rights reserved                #
                  #                        -***-                        #
                  #######################################################


                         Program Version 4.0.1.2 - RELEASE -


 With contributions from (in alphabetic order):
   Daniel Aravena         : Magnetic Properties
   Michael Atanasov       : Ab Initio Ligand Field Theory
   Ute Becker             : Parallelization
   Martin Brehm           : Molecular dynamics
   Dmytro Bykov           : SCF Hessian
   Vijay G. Chilkuri      : MRCI spin determinant printing
   Dipayan Datta          : RHF DLPNO-CCSD density
   Achintya Kumar Dutta   : EOM-CC, STEOM-CC
   Dmitry Ganyushin       : Spin-Orbit,Spin-Spin,Magnetic field MRCI
   Yang Guo               : DLPNO-NEVPT2, CIM, IAO-localization
   Andreas Hansen         : Spin unrestricted coupled pair/coupled cluster methods
   Lee Huntington         : MR-EOM, pCC
   Robert Izsak           : Overlap fitted RIJCOSX, COSX-SCS-MP3, EOM
   Christian Kollmar      : KDIIS, OOCD, Brueckner-CCSD(T), CCSD density
   Simone Kossmann        : Meta GGA functionals, TD-DFT gradient, OOMP2, MP2 Hessian
   Martin Krupicka        : AUTO-CI
   Dagmar Lenk            : GEPOL surface
   Dimitrios Liakos       : Extrapolation schemes; parallel MDCI
   Dimitrios Manganas     : ROCIS; embedding schemes
   Dimitrios Pantazis     : SARC Basis sets
   Taras Petrenko         : DFT Hessian,TD-DFT gradient, ASA, ECA, R-Raman, ABS, FL, XAS/XES, NRVS
   Peter Pinski           : DLPNO-MP2
   Christoph Reimann      : Effective Core Potentials
   Marius Retegan         : Local ZFS, SOC
   Christoph Riplinger    : Optimizer, TS searches, QM/MM, DLPNO-CCSD(T), (RO)-DLPNO pert. Triples
   Tobias Risthaus        : Range-separated hybrids, TD-DFT gradient, RPA, STAB
   Michael Roemelt        : Restricted open shell CIS
   Masaaki Saitow         : Open-shell DLPNO
   Barbara Sandhoefer     : DKH picture change effects
   Kantharuban Sivalingam : CASSCF convergence, NEVPT2, FIC-MRCI
   Georgi Stoychev        : AutoAux
   Boris Wezisla          : Elementary symmetry handling
   Frank Wennmohs         : Technical directorship


 We gratefully acknowledge several colleagues who have allowed us to
 interface, adapt or use parts of their codes:
   Stefan Grimme, W. Hujo, H. Kruse,             : VdW corrections, initial TS optimization,
                  C. Bannwarth                     DFT functionals, gCP, sTDA/sTD-DF
   Ed Valeev                                     : LibInt (2-el integral package), F12 methods
   Garnet Chan, S. Sharma, J. Yang, R. Olivares  : DMRG
   Ulf Ekstrom                                   : XCFun DFT Library
   Mihaly Kallay                                 : mrcc  (arbitrary order and MRCC methods)
   Andreas Klamt, Michael Diedenhofen            : otool_cosmo (COSMO solvation model)
   Jiri Pittner, Ondrej Demel                    : Mk-CCSD
   Frank Weinhold                                : gennbo (NPA and NBO analysis)
   Christopher J. Cramer and Donald G. Truhlar   : smd solvation model


 Your calculation uses the libint2 library for the computation of 2-el integrals
 For citations please refer to: http://libint.valeyev.net

 This ORCA versions uses:
   CBLAS   interface :  Fast vector & matrix operations
   LAPACKE interface :  Fast linear algebra routines
   SCALAPACK package :  Parallel linear algebra routines


Your calculation utilizes the atom-pairwise dispersion correction
with the Becke-Johnson damping scheme (D3BJ)
Cite in your paper:
S.Grimme, S.Ehrlich, L.Goerigk, J Comput Chem, (2011), 32, 1456–1465 
S.Grimme, J.Antony, S.Ehrlich and H.Krieg, J.Chem.Phys., 132, (2010), 154104 
   

Your calculation utilizes the basis: cc-pVDZ 
       H, B-Ne : Obtained from the ccRepo (grant-hill.group.shef.ac.uk/ccrepo) Feb. 2017
                 T. H. Dunning, Jr., J. Chem. Phys. 90, 1007 (1989)
            He : Obtained from the ccRepo (grant-hill.group.shef.ac.uk/ccrepo) Feb. 2017
                 D. E. Woon, T. H. Dunning, Jr., J. Chem. Phys. 100, 2975 (1994)
  Li-Be, Na-Mg : Obtained from the ccRepo (grant-hill.group.shef.ac.uk/ccrepo) Feb. 2017
                 B. P. Prascher, D. E. Woon, K. A. Peterson, T. H. Dunning, Jr., A. K. Wilson, Theor. Chem. Acc. 128, 69 (2011)
         Al-Ar : Obtained from the ccRepo (grant-hill.group.shef.ac.uk/ccrepo) Feb. 2017
                 D. E. Woon, T. H. Dunning, Jr., J. Chem. Phys. 98, 1358 (1993)
            Ca : Obtained from the Peterson Research Group Website (tyr0.chem.wsu.edu/~kipeters) Feb. 2017
                 J. Koput, K. A. Peterson, J. Phys. Chem. 106, 9595 (2002)
         Sc-Zn : Obtained from the ccRepo (grant-hill.group.shef.ac.uk/ccrepo) Feb. 2017
                 N. B. Balabanov, K. A. Peterson, J. Chem. Phys. 123, 064107 (2005)
                 N. B. Balabanov, K. A. Peterson, J. Chem. Phys. 125, 074110 (2006)
         Ga-Kr : Obtained from the ccRepo (grant-hill.group.shef.ac.uk/ccrepo) Feb. 2017
                 A. K. Wilson, D. E. Woon, K. A. Peterson, T. H. Dunning, Jr., J. Chem. Phys. 110, 7667 (1999)

Your calculation utilizes the auxiliary basis: def2/J
   F. Weigend, Phys. Chem. Chem. Phys. 8, 1057 (2006).

================================================================================
                                        WARNINGS
                       Please study these warnings very carefully!
================================================================================

Warning: TCutStore was < 0. Adjusted to Thresh (uncritical)

WARNING: Geometry Optimization
  ===> : Switching off AutoStart
         For restart on a previous wavefunction, please use MOREAD

INFO   : the flag for use of LIBINT has been found!

================================================================================
                                       INPUT FILE
================================================================================
NAME = AT-v/e/frag_02_c00001.com
|  1> %pal nprocs 6 end
|  2> %maxcore 1000
|  3> ! b3lyp TIGHTSCF nopop D3BJ
|  4> ! cc-pvdz def2/J RIJCOSX
|  5> ! Opt
|  6> 
|  7> %geom
|  8> maxiter 60
|  9> TolE 1e-4
| 10> TolRMSG 2e-3
| 11> TolMaxG 3e-3
| 12> TolRMSD 2e-2
| 13> TolMaxD 3e-2
| 14> end
| 15> 
| 16> *xyz 0 1
| 17> N 3.7932 -1.6699 -0.0533
| 18> C 3.1352 -0.5605 -0.1193
| 19> C 1.6206 -0.5836 -0.2398
| 20> N 0.9975 -1.7923 -0.2759
| 21> N 0.9573 0.5278 -0.3055
| 22> N -1.8519 0.326 0.0267
| 23> C -2.3464 -0.8517 0.484
| 24> O -1.6425 -1.81 0.7707
| 25> H 4.7974 -1.4702 0.0163
| 26> H 3.6116 0.4317 -0.0976
| 27> H 1.569 -2.5606 0.0671
| 28> H 0.0447 -1.808 0.0967
| 29> H 1.5944 1.3305 -0.2716
| 30> H -2.4359 1.079 -0.3025
| 31> H -0.8412 0.4038 -0.1361
| 32> H -3.4452 -0.8574 0.5647
| 33> *
| 34> 
| 35> 
| 36>                          ****END OF INPUT****
================================================================================

                       *****************************
                       * Geometry Optimization Run *
                       *****************************

Geometry optimization settings:
Update method            Update   .... BFGS
Choice of coordinates    CoordSys .... Redundant Internals
Initial Hessian          InHess   .... Almoef's Model

Convergence Tolerances:
Energy Change            TolE     ....  1.0000e-04 Eh
Max. Gradient            TolMAXG  ....  3.0000e-03 Eh/bohr
RMS Gradient             TolRMSG  ....  2.0000e-03 Eh/bohr
Max. Displacement        TolMAXD  ....  3.0000e-02 bohr
RMS Displacement         TolRMSD  ....  2.0000e-02 bohr

------------------------------------------------------------------------------
                        ORCA OPTIMIZATION COORDINATE SETUP
------------------------------------------------------------------------------

The optimization will be done in new redundant internal coordinates
Making redundant internal coordinates   ...  (new redundants) done
Evaluating the initial hessian          ...  (Almloef) done
Evaluating the coordinates              ...  done
Calculating the B-matrix                .... done
Calculating the G-matrix                .... done
Diagonalizing the G-matrix              .... done
The first mode is                       ....   24
The number of degrees of freedom        ....   42

    -----------------------------------------------------------------
                    Redundant Internal Coordinates


    -----------------------------------------------------------------
         Definition                    Initial Value    Approx d2E/dq
    -----------------------------------------------------------------
      1. B(C   1,N   0)                  1.2915         0.803441   
      2. B(C   2,C   1)                  1.5196         0.388179   
      3. B(N   3,C   2)                  1.3603         0.624027   
      4. B(N   4,C   2)                  1.2960         0.790537   
      5. B(C   6,N   5)                  1.3567         0.632420   
      6. B(O   7,C   6)                  1.2231         1.033069   
      7. B(H   8,N   0)                  1.0262         0.407667   
      8. B(H   9,C   1)                  1.1009         0.346019   
      9. B(H  10,N   3)                  1.0171         0.421527   
     10. B(H  11,N   3)                  1.0232         0.412250   
     11. B(H  11,O   7)                  1.8168         0.022332   
     12. B(H  12,N   4)                  1.0254         0.408961   
     13. B(H  13,N   5)                  1.0082         0.435602   
     14. B(H  14,N   4)                  1.8107         0.022841   
     15. B(H  14,N   5)                  1.0267         0.406990   
     16. B(H  15,C   6)                  1.1018         0.344856   
     17. A(C   1,N   0,H   8)          109.5631         0.371129   
     18. A(N   0,C   1,C   2)          119.9205         0.415410   
     19. A(N   0,C   1,H   9)          123.5529         0.364056   
     20. A(C   2,C   1,H   9)          116.5261         0.324237   
     21. A(C   1,C   2,N   4)          120.0752         0.414215   
     22. A(N   3,C   2,N   4)          121.7499         0.448126   
     23. A(C   1,C   2,N   3)          118.1749         0.397264   
     24. A(C   2,N   3,H  11)          115.4999         0.356120   
     25. A(C   2,N   3,H  10)          113.8816         0.357469   
     26. A(H  10,N   3,H  11)          112.8819         0.299669   
     27. A(C   2,N   4,H  12)          110.5894         0.370299   
     28. A(H  12,N   4,H  14)          131.8872         0.197704   
     29. A(C   2,N   4,H  14)          116.4170         0.235411   
     30. A(H  13,N   5,H  14)          117.5077         0.300625   
     31. A(C   6,N   5,H  14)          118.5577         0.356151   
     32. A(C   6,N   5,H  13)          123.1802         0.360291   
     33. A(N   5,C   6,O   7)          123.3236         0.471704   
     34. A(O   7,C   6,H  15)          123.5539         0.379939   
     35. A(N   5,C   6,H  15)          113.1216         0.349354   
     36. A(C   6,O   7,H  11)          116.5266         0.243761   
     37. L(N   3,H  11,O   7,C   2, 2) 180.3790         0.197347   
     38. L(N   3,H  11,O   7,C   2, 1) 179.1133         0.197347   
     39. L(N   4,H  14,N   5,C   6, 2) 174.2898         0.197585   
     40. L(N   4,H  14,N   5,C   6, 1) 178.2949         0.197585   
     41. D(H   9,C   1,N   0,H   8)     -0.2142         0.049802   
     42. D(C   2,C   1,N   0,H   8)    179.5249         0.049802   
     43. D(N   4,C   2,C   1,H   9)     -0.2811         0.010399   
     44. D(N   4,C   2,C   1,N   0)    179.9620         0.010399   
     45. D(N   3,C   2,C   1,N   0)     -0.0548         0.010399   
     46. D(N   3,C   2,C   1,H   9)    179.7022         0.010399   
     47. D(H  11,N   3,C   2,N   4)    -28.9615         0.031565   
     48. D(H  11,N   3,C   2,C   1)    151.0555         0.031565   
     49. D(H  10,N   3,C   2,N   4)   -161.9865         0.031565   
     50. D(H  10,N   3,C   2,C   1)     18.0305         0.031565   
     51. D(H  14,N   4,C   2,N   3)     11.0513         0.053127   
     52. D(H  14,N   4,C   2,C   1)   -168.9660         0.053127   
     53. D(H  12,N   4,C   2,N   3)   -179.5278         0.053127   
     54. D(H  12,N   4,C   2,C   1)      0.4549         0.053127   
     55. D(C   6,N   5,N   4,C   2)     12.1565         0.001501   
     56. D(H  13,N   5,N   4,H  12)     34.7725         0.001501   
     57. D(H  13,N   5,N   4,C   2)   -160.4596         0.001501   
     58. D(C   6,N   5,N   4,H  12)   -152.6114         0.001501   
     59. D(H  15,C   6,N   5,H  14)   -176.2628         0.032489   
     60. D(H  15,C   6,N   5,H  13)     -6.4714         0.032489   
     61. D(O   7,C   6,N   5,H  14)      3.4100         0.032489   
     62. D(O   7,C   6,N   5,H  13)    173.2014         0.032489   
     63. D(H  11,O   7,C   6,H  15)    161.3451         0.088315   
     64. D(H  11,O   7,C   6,N   5)    -18.2938         0.088315   
     65. D(C   6,O   7,N   3,H  10)    174.1877         0.001500   
     66. D(C   6,O   7,N   3,C   2)     40.9927         0.001500   
    -----------------------------------------------------------------

Number of atoms                         .... 16
Number of degrees of freedom            .... 66

         *************************************************************
         *                GEOMETRY OPTIMIZATION CYCLE   1            *
         *************************************************************
---------------------------------
CARTESIAN COORDINATES (ANGSTROEM)
---------------------------------
  N      3.793200   -1.669900   -0.053300
  C      3.135200   -0.560500   -0.119300
  C      1.620600   -0.583600   -0.239800
  N      0.997500   -1.792300   -0.275900
  N      0.957300    0.527800   -0.305500
  N     -1.851900    0.326000    0.026700
  C     -2.346400   -0.851700    0.484000
  O     -1.642500   -1.810000    0.770700
  H      4.797400   -1.470200    0.016300
  H      3.611600    0.431700   -0.097600
  H      1.569000   -2.560600    0.067100
  H      0.044700   -1.808000    0.096700
  H      1.594400    1.330500   -0.271600
  H     -2.435900    1.079000   -0.302500
  H     -0.841200    0.403800   -0.136100
  H     -3.445200   -0.857400    0.564700

----------------------------
CARTESIAN COORDINATES (A.U.)
----------------------------
  NO LB      ZA    FRAG     MASS         X           Y           Z
   0 N     7.0000    0    14.007    7.168109   -3.155654   -0.100722
   1 C     6.0000    0    12.011    5.924669   -1.059191   -0.225444
   2 C     6.0000    0    12.011    3.062490   -1.102844   -0.453156
   3 N     7.0000    0    14.007    1.885002   -3.386956   -0.521375
   4 N     7.0000    0    14.007    1.809035    0.997397   -0.577311
   5 N     7.0000    0    14.007   -3.499584    0.616051    0.050456
   6 C     6.0000    0    12.011   -4.434053   -1.609480    0.914627
   7 O     8.0000    0    15.999   -3.103875   -3.420404    1.456412
   8 H     1.0000    0     1.008    9.065772   -2.778275    0.030803
   9 H     1.0000    0     1.008    6.824935    0.815795   -0.184437
  10 H     1.0000    0     1.008    2.964980   -4.838833    0.126801
  11 H     1.0000    0     1.008    0.084471   -3.416625    0.182737
  12 H     1.0000    0     1.008    3.012979    2.514281   -0.513250
  13 H     1.0000    0     1.008   -4.603184    2.039014   -0.571642
  14 H     1.0000    0     1.008   -1.589638    0.763071   -0.257192
  15 H     1.0000    0     1.008   -6.510484   -1.620251    1.067128

--------------------------------
INTERNAL COORDINATES (ANGSTROEM)
--------------------------------
 N      0   0   0     0.000000000000     0.00000000     0.00000000
 C      1   0   0     1.291544950824     0.00000000     0.00000000
 C      2   1   0     1.519561456474   119.92053239     0.00000000
 N      3   2   1     1.360335440250   118.17491481   359.94524901
 N      3   2   1     1.295952676605   120.07520986   179.96195782
 N      5   3   2     2.835962750108   116.10589413   192.52030723
 C      6   5   3     1.356698503721   117.53568280    12.15648472
 O      7   6   5     1.223115280748   123.32361389     0.93145535
 H      1   2   3     1.026227016795   109.56312752   179.52487093
 H      2   1   3     1.100858160709   123.55293100   180.26094012
 H      4   3   2     1.017126412989   113.88156453    18.03051018
 H      4   3   2     1.023183800693   115.49993424   151.05552028
 H      5   3   2     1.025364769241   110.58937904     0.45491289
 H      6   5   3     1.008185320266   118.84205359   199.54040236
 H      6   5   3     1.026679682277     2.41438591   256.53465303
 H      7   6   5     1.101774214619   113.12157604   181.25866708

---------------------------
INTERNAL COORDINATES (A.U.)
---------------------------
 N      0   0   0     0.000000000000     0.00000000     0.00000000
 C      1   0   0     2.440666246707     0.00000000     0.00000000
 C      2   1   0     2.871554996397   119.92053239     0.00000000
 N      3   2   1     2.570661432340   118.17491481   359.94524901
 N      3   2   1     2.448995641306   120.07520986   179.96195782
 N      5   3   2     5.359192923706   116.10589413   192.52030723
 C      6   5   3     2.563788618334   117.53568280    12.15648472
 O      7   6   5     2.311352910828   123.32361389     0.93145535
 H      1   2   3     1.939288012974   109.56312752   179.52487093
 H      2   1   3     2.080320436033   123.55293100   180.26094012
 H      4   3   2     1.922090364127   113.88156453    18.03051018
 H      4   3   2     1.933537167974   115.49993424   151.05552028
 H      5   3   2     1.937658601236   110.58937904     0.45491289
 H      6   5   3     1.905194147543   118.84205359   199.54040236
 H      6   5   3     1.940143426764     2.41438591   256.53465303
 H      7   6   5     2.082051527047   113.12157604   181.25866708

---------------------
BASIS SET INFORMATION
---------------------
There are 4 groups of distinct atoms

 Group   1 Type N   : 17s4p1d contracted to 3s2p1d pattern {881/31/1}
 Group   2 Type C   : 17s4p1d contracted to 3s2p1d pattern {881/31/1}
 Group   3 Type O   : 17s4p1d contracted to 3s2p1d pattern {881/31/1}
 Group   4 Type H   : 4s1p contracted to 2s1p pattern {31/1}

Atom   0N    basis set group =>   1
Atom   1C    basis set group =>   2
Atom   2C    basis set group =>   2
Atom   3N    basis set group =>   1
Atom   4N    basis set group =>   1
Atom   5N    basis set group =>   1
Atom   6C    basis set group =>   2
Atom   7O    basis set group =>   3
Atom   8H    basis set group =>   4
Atom   9H    basis set group =>   4
Atom  10H    basis set group =>   4
Atom  11H    basis set group =>   4
Atom  12H    basis set group =>   4
Atom  13H    basis set group =>   4
Atom  14H    basis set group =>   4
Atom  15H    basis set group =>   4
-------------------------------
AUXILIARY BASIS SET INFORMATION
-------------------------------
There are 4 groups of distinct atoms

 Group   1 Type N   : 12s5p4d2f1g contracted to 6s4p3d1f1g pattern {711111/2111/211/2/1}
 Group   2 Type C   : 12s5p4d2f1g contracted to 6s4p3d1f1g pattern {711111/2111/211/2/1}
 Group   3 Type O   : 12s5p4d2f1g contracted to 6s4p3d1f1g pattern {711111/2111/211/2/1}
 Group   4 Type H   : 5s2p1d contracted to 3s1p1d pattern {311/2/1}

Atom   0N    basis set group =>   1
Atom   1C    basis set group =>   2
Atom   2C    basis set group =>   2
Atom   3N    basis set group =>   1
Atom   4N    basis set group =>   1
Atom   5N    basis set group =>   1
Atom   6C    basis set group =>   2
Atom   7O    basis set group =>   3
Atom   8H    basis set group =>   4
Atom   9H    basis set group =>   4
Atom  10H    basis set group =>   4
Atom  11H    basis set group =>   4
Atom  12H    basis set group =>   4
Atom  13H    basis set group =>   4
Atom  14H    basis set group =>   4
Atom  15H    basis set group =>   4


           ************************************************************
           *        Program running with 6 parallel MPI-processes     *
           *              working on a common directory               *
           ************************************************************
------------------------------------------------------------------------------
                           ORCA GTO INTEGRAL CALCULATION
                           -- RI-GTO INTEGRALS CHOSEN --
------------------------------------------------------------------------------

                         BASIS SET STATISTICS AND STARTUP INFO

Gaussian basis set:
 # of primitive gaussian shells          ...  216
 # of primitive gaussian functions       ...  328
 # of contracted shells                  ...   72
 # of contracted basis functions         ...  152
 Highest angular momentum                ...    2
 Maximum contraction depth               ...    8
Auxiliary gaussian basis set:
 # of primitive gaussian shells          ...  256
 # of primitive gaussian functions       ...  688
 # of contracted shells                  ...  160
 # of contracted aux-basis functions     ...  480
 Highest angular momentum                ...    4
 Maximum contraction depth               ...    7
Ratio of auxiliary to basis functions    ...  3.16
Integral package used                  ... LIBINT
 One Electron integrals                  ... done
 Ordering auxiliary basis shells         ... done
 Integral threshhold             Thresh  ...  2.500e-11
 Primitive cut-off               TCut    ...  2.500e-12
 Pre-screening matrix                    ... done
 Shell pair data                         ... 
 Ordering of the shell pairs             ... done (   0.000 sec) 2422 of 2628 pairs
 Determination of significant pairs      ... done (   0.000 sec)
 Creation of shell pair data             ... done (   0.001 sec)
 Storage of shell pair data              ... done (   0.002 sec)
 Shell pair data done in (   0.004 sec)
 Computing two index integrals           ... done
 Cholesky decomposition of the V-matrix  ... done


Timings:
 Total evaluation time                   ...   0.339 sec (  0.006 min)
 One electron matrix time                ...   0.035 sec (  0.001 min) = 10.2%
 Schwartz matrix evaluation time         ...   0.255 sec (  0.004 min) = 75.3%
 Two index repulsion integral time       ...   0.019 sec (  0.000 min) =  5.6%
 Cholesky decomposition of V             ...   0.006 sec (  0.000 min) =  1.9%
 Three index repulsion integral time     ...   0.000 sec (  0.000 min) =  0.0%



           ************************************************************
           *        Program running with 6 parallel MPI-processes     *
           *              working on a common directory               *
           ************************************************************
-------------------------------------------------------------------------------
                                 ORCA SCF
-------------------------------------------------------------------------------

------------
SCF SETTINGS
------------
Hamiltonian:
 Density Functional     Method          .... DFT(GTOs)
 Exchange Functional    Exchange        .... B88
   X-Alpha parameter    XAlpha          ....  0.666667
   Becke's b parameter  XBeta           ....  0.004200
 Correlation Functional Correlation     .... LYP
 LDA part of GGA corr.  LDAOpt          .... VWN-5
 Gradients option       PostSCFGGA      .... off
 Hybrid DFT is turned on
   Fraction HF Exchange ScalHFX         ....  0.200000
   Scaling of DF-GGA-X  ScalDFX         ....  0.720000
   Scaling of DF-GGA-C  ScalDFC         ....  0.810000
   Scaling of DF-LDA-C  ScalLDAC        ....  1.000000
   Perturbative correction              ....  0.000000
   NL short-range parameter             ....  4.800000
 RI-approximation to the Coulomb term is turned on
   Number of auxiliary basis functions  .... 480
   RIJ-COSX (HFX calculated with COS-X)).... on


General Settings:
 Integral files         IntName         .... AT-v/e/frag_02_c00001
 Hartree-Fock type      HFTyp           .... RHF
 Total Charge           Charge          ....    0
 Multiplicity           Mult            ....    1
 Number of Electrons    NEL             ....   62
 Basis Dimension        Dim             ....  152
 Nuclear Repulsion      ENuc            ....    353.8366194582 Eh

Convergence Acceleration:
 DIIS                   CNVDIIS         .... on
   Start iteration      DIISMaxIt       ....    12
   Startup error        DIISStart       ....  0.200000
   # of expansion vecs  DIISMaxEq       ....     5
   Bias factor          DIISBfac        ....   1.050
   Max. coefficient     DIISMaxC        ....  10.000
 Newton-Raphson         CNVNR           .... off
 SOSCF                  CNVSOSCF        .... on
   Start iteration      SOSCFMaxIt      ....   150
   Startup grad/error   SOSCFStart      ....  0.003300
 Level Shifting         CNVShift        .... on
   Level shift para.    LevelShift      ....    0.2500
   Turn off err/grad.   ShiftErr        ....    0.0010
 Zerner damping         CNVZerner       .... off
 Static damping         CNVDamp         .... on
   Fraction old density DampFac         ....    0.7000
   Max. Damping (<1)    DampMax         ....    0.9800
   Min. Damping (>=0)   DampMin         ....    0.0000
   Turn off err/grad.   DampErr         ....    0.1000
 Fernandez-Rico         CNVRico         .... off

SCF Procedure:
 Maximum # iterations   MaxIter         ....   125
 SCF integral mode      SCFMode         .... Direct
   Integral package                     .... LIBINT
 Reset frequeny         DirectResetFreq ....    20
 Integral Threshold     Thresh          ....  2.500e-11 Eh
 Primitive CutOff       TCut            ....  2.500e-12 Eh

Convergence Tolerance:
 Convergence Check Mode ConvCheckMode   .... Total+1el-Energy
 Convergence forced     ConvForced      .... 0
 Energy Change          TolE            ....  1.000e-08 Eh
 1-El. energy change                    ....  1.000e-05 Eh
 Orbital Gradient       TolG            ....  1.000e-05
 Orbital Rotation angle TolX            ....  1.000e-05
 DIIS Error             TolErr          ....  5.000e-07


Diagonalization of the overlap matrix:
Smallest eigenvalue                        ... 2.429e-03
Time for diagonalization                   ...    0.006 sec
Threshold for overlap eigenvalues          ... 1.000e-08
Number of eigenvalues below threshold      ... 0
Time for construction of square roots      ...    0.003 sec
Total time needed                          ...    0.009 sec

-------------------
DFT GRID GENERATION
-------------------

General Integration Accuracy     IntAcc      ...  4.340
Radial Grid Type                 RadialGrid  ... Gauss-Chebyshev
Angular Grid (max. acc.)         AngularGrid ... Lebedev-110
Angular grid pruning method      GridPruning ... 3 (G Style)
Weight generation scheme         WeightScheme... Becke
Basis function cutoff            BFCut       ...    1.0000e-11
Integration weight cutoff        WCut        ...    1.0000e-14
Grids for H and He will be reduced by one unit

# of grid points (after initial pruning)     ...  19844 (   0.0 sec)
# of grid points (after weights+screening)   ...  18642 (   0.0 sec)
nearest neighbour list constructed           ...    0.0 sec
Grid point re-assignment to atoms done       ...    0.0 sec
Grid point division into batches done        ...    0.0 sec
Reduced shell lists constructed in    0.1 sec

Total number of grid points                  ...    18642
Total number of batches                      ...      299
Average number of points per batch           ...       62
Average number of grid points per atom       ...     1165
Average number of shells per batch           ...    52.90 (73.47%)
Average number of basis functions per batch  ...   107.73 (70.87%)
Average number of large shells per batch     ...    40.98 (77.46%)
Average number of large basis fcns per batch ...    84.31 (78.27%)
Maximum spatial batch extension              ...   4.79, 11.16, 21.52 au
Average spatial batch extension              ...   0.34,  0.42,  0.66 au

Time for grid setup =    0.098 sec

------------------------------
INITIAL GUESS: MODEL POTENTIAL
------------------------------
Loading Hartree-Fock densities                     ... done
Calculating cut-offs                               ... done
Setting up the integral package                    ... done
Initializing the effective Hamiltonian             ... done
Starting the Coulomb interaction                   ... done (   0.0 sec)
Reading the grid                                   ... done
Mapping shells                                     ... done
Starting the XC term evaluation                    ... done (   0.1 sec)
  promolecular density results
     # of electrons  =     62.001664149
     EX              =    -52.237841982
     EC              =     -2.108741320
     EX+EC           =    -54.346583302
Transforming the Hamiltonian                       ... done (   0.0 sec)
Diagonalizing the Hamiltonian                      ... done (   0.0 sec)
Back transforming the eigenvectors                 ... done (   0.0 sec)
Now organizing SCF variables                       ... done
                      ------------------
                      INITIAL GUESS DONE (   0.3 sec)
                      ------------------
--------------------
COSX GRID GENERATION
--------------------

General Integration Accuracy     IntAcc      ...  3.340
Radial Grid Type                 RadialGrid  ... Gauss-Chebyshev
Angular Grid (max. acc.)         AngularGrid ... Lebedev-50
Angular grid pruning method      GridPruning ... 3 (G Style)
Weight generation scheme         WeightScheme... Becke
Basis function cutoff            BFCut       ...    1.0000e-11
Integration weight cutoff        WCut        ...    1.0000e-14
Grids for H and He will be reduced by one unit

# of grid points (after initial pruning)     ...   7144 (   0.0 sec)
# of grid points (after weights+screening)   ...   6740 (   0.0 sec)
nearest neighbour list constructed           ...    0.0 sec
Grid point re-assignment to atoms done       ...    0.0 sec
Grid point division into batches done        ...    0.0 sec
Reduced shell lists constructed in    0.0 sec

Total number of grid points                  ...     6740
Total number of batches                      ...      113
Average number of points per batch           ...       59
Average number of grid points per atom       ...      421
Average number of shells per batch           ...    52.30 (72.64%)
Average number of basis functions per batch  ...   107.10 (70.46%)
Average number of large shells per batch     ...    40.55 (77.53%)
Average number of large basis fcns per batch ...    83.85 (78.29%)
Maximum spatial batch extension              ...   5.25,  9.50, 30.36 au
Average spatial batch extension              ...   0.40,  0.53,  1.02 au

Overlap Fitting                  UseSFitting ... on
Constructing numerical overlap ... done (      0.0 sec)
Inverting numerical overlap    ... done (      0.0 sec)
Obtaining analytic overlap     ... done (      0.0 sec)
Final contraction and storage  ... done (      0.0 sec)


General Integration Accuracy     IntAcc      ...  3.670
Radial Grid Type                 RadialGrid  ... Gauss-Chebyshev
Angular Grid (max. acc.)         AngularGrid ... Lebedev-50
Angular grid pruning method      GridPruning ... 3 (G Style)
Weight generation scheme         WeightScheme... Becke
Basis function cutoff            BFCut       ...    1.0000e-11
Integration weight cutoff        WCut        ...    1.0000e-14
Grids for H and He will be reduced by one unit

# of grid points (after initial pruning)     ...   9160 (   0.0 sec)
# of grid points (after weights+screening)   ...   8631 (   0.0 sec)
nearest neighbour list constructed           ...    0.0 sec
Grid point re-assignment to atoms done       ...    0.0 sec
Grid point division into batches done        ...    0.0 sec
Reduced shell lists constructed in    0.0 sec

Total number of grid points                  ...     8631
Total number of batches                      ...      143
Average number of points per batch           ...       60
Average number of grid points per atom       ...      539
Average number of shells per batch           ...    52.88 (73.44%)
Average number of basis functions per batch  ...   108.00 (71.05%)
Average number of large shells per batch     ...    41.52 (78.52%)
Average number of large basis fcns per batch ...    85.76 (79.41%)
Maximum spatial batch extension              ...   5.26, 10.15, 26.68 au
Average spatial batch extension              ...   0.40,  0.50,  0.95 au

Overlap Fitting                  UseSFitting ... on
Constructing numerical overlap ... done (      0.0 sec)
Inverting numerical overlap    ... done (      0.0 sec)
Obtaining analytic overlap     ... done (      0.0 sec)
Final contraction and storage  ... done (      0.0 sec)


General Integration Accuracy     IntAcc      ...  4.010
Radial Grid Type                 RadialGrid  ... Gauss-Chebyshev
Angular Grid (max. acc.)         AngularGrid ... Lebedev-110
Angular grid pruning method      GridPruning ... 3 (G Style)
Weight generation scheme         WeightScheme... Becke
Basis function cutoff            BFCut       ...    1.0000e-11
Integration weight cutoff        WCut        ...    1.0000e-14
Grids for H and He will be reduced by one unit

# of grid points (after initial pruning)     ...  17042 (   0.0 sec)
# of grid points (after weights+screening)   ...  16030 (   0.0 sec)
nearest neighbour list constructed           ...    0.0 sec
Grid point re-assignment to atoms done       ...    0.0 sec
Grid point division into batches done        ...    0.0 sec
Reduced shell lists constructed in    0.0 sec

Total number of grid points                  ...    16030
Total number of batches                      ...      260
Average number of points per batch           ...       61
Average number of grid points per atom       ...     1002
Average number of shells per batch           ...    52.96 (73.55%)
Average number of basis functions per batch  ...   108.02 (71.07%)
Average number of large shells per batch     ...    40.82 (77.09%)
Average number of large basis fcns per batch ...    83.89 (77.66%)
Maximum spatial batch extension              ...   4.85, 10.76, 36.50 au
Average spatial batch extension              ...   0.36,  0.47,  0.77 au

Overlap Fitting                  UseSFitting ... on
Constructing numerical overlap ... done (      0.0 sec)
Inverting numerical overlap    ... done (      0.0 sec)
Obtaining analytic overlap     ... done (      0.0 sec)
Final contraction and storage  ... done (      0.0 sec)

Time for X-Grid setup             =    0.284 sec
--------------
SCF ITERATIONS
--------------
ITER       Energy         Delta-E        Max-DP      RMS-DP      [F,P]     Damp
               ***  Starting incremental Fock matrix formation  ***
  0   -412.7933327496   0.000000000000 0.08997532  0.00301868  0.2652464 0.7000
  1   -412.9745347429  -0.181201993307 0.05672659  0.00194656  0.1112510 0.7000
                               ***Turning on DIIS***
  2   -413.0361315079  -0.061596764950 0.07744159  0.00266187  0.0409308 0.0000
  3   -413.1380277288  -0.101896220911 0.03579286  0.00133970  0.0649180 0.0000
  4   -413.1603606228  -0.022332893985 0.01170774  0.00040043  0.0157604 0.0000
  5   -413.1620125286  -0.001651905877 0.00334089  0.00013081  0.0043621 0.0000
                      *** Initiating the SOSCF procedure ***
                           *** Shutting down DIIS ***
                      *** Re-Reading the Fockian *** 
                      *** Removing any level shift *** 
ITER      Energy       Delta-E        Grad      Rot      Max-DP    RMS-DP
  6   -413.16209249  -0.0000799603  0.000560  0.000560  0.001318  0.000045
               *** Restarting incremental Fock matrix formation ***
  7   -413.16211693  -0.0000244389  0.000208  0.000649  0.001096  0.000034
  8   -413.16211652   0.0000004041  0.000283  0.000469  0.000579  0.000014
  9   -413.16211826  -0.0000017349  0.000094  0.000234  0.000225  0.000010
 10   -413.16211829  -0.0000000337  0.000068  0.000097  0.000157  0.000003
 11   -413.16211839  -0.0000001016  0.000013  0.000031  0.000047  0.000002
 12   -413.16211838   0.0000000114  0.000022  0.000024  0.000033  0.000001
 13   -413.16211840  -0.0000000210  0.000005  0.000011  0.000016  0.000001
 14   -413.16211840   0.0000000030  0.000008  0.000007  0.000010  0.000000
                  ***Gradient check signals convergence***
              ***Rediagonalizing the Fockian in SOSCF/NRSCF***

               *****************************************************
               *                     SUCCESS                       *
               *           SCF CONVERGED AFTER  15 CYCLES          *
               *****************************************************

Setting up the final grid:

General Integration Accuracy     IntAcc      ...  4.670
Radial Grid Type                 RadialGrid  ... Gauss-Chebyshev
Angular Grid (max. acc.)         AngularGrid ... Lebedev-302
Angular grid pruning method      GridPruning ... 3 (G Style)
Weight generation scheme         WeightScheme... Becke
Basis function cutoff            BFCut       ...    1.0000e-11
Integration weight cutoff        WCut        ...    1.0000e-14
Grids for H and He will be reduced by one unit

# of grid points (after initial pruning)     ...  76848 (   0.0 sec)
# of grid points (after weights+screening)   ...  71240 (   0.1 sec)
nearest neighbour list constructed           ...    0.0 sec
Grid point re-assignment to atoms done       ...    0.0 sec
Grid point division into batches done        ...    0.3 sec
Reduced shell lists constructed in    0.5 sec

Total number of grid points                  ...    71240
Total number of batches                      ...     1121
Average number of points per batch           ...       63
Average number of grid points per atom       ...     4452
Average number of shells per batch           ...    51.05 (70.91%)
Average number of basis functions per batch  ...   103.68 (68.21%)
Average number of large shells per batch     ...    38.69 (75.78%)
Average number of large basis fcns per batch ...    79.20 (76.39%)
Maximum spatial batch extension              ...   4.70, 13.87, 17.59 au
Average spatial batch extension              ...   0.23,  0.26,  0.32 au

Final grid set up in    0.6 sec
Final integration                            ... done (   0.3 sec)
Change in XC energy                          ...    -0.000054292
Integrated number of electrons               ...    62.000243713
Previous integrated no of electrons          ...    61.998897741
Old exchange energy                            =    -10.603874064 Eh
New exchange energy                            =    -10.603472409 Eh
Exchange energy change after final integration =      0.000401654 Eh
Total energy after final integration           =   -413.161771039 Eh
Final COS-X integration done in                =     1.752 sec

----------------
TOTAL SCF ENERGY
----------------

Total Energy       :         -413.16177104 Eh          -11242.70336 eV

Components:
Nuclear Repulsion  :          353.83661946 Eh            9628.38391 eV
Electronic Energy  :         -766.99839050 Eh          -20871.08727 eV
One Electron Energy:        -1263.27578602 Eh          -34375.48175 eV
Two Electron Energy:          496.27739552 Eh           13504.39448 eV

Virial components:
Potential Energy   :         -823.83731732 Eh          -22417.75310 eV
Kinetic Energy     :          410.67554629 Eh           11175.04974 eV
Virial Ratio       :            2.00605399


DFT components:
N(Alpha)           :       31.000121856265 electrons
N(Beta)            :       31.000121856265 electrons
N(Total)           :       62.000243712530 electrons
E(X)               :      -42.186175352003 Eh       
E(C)               :       -2.493809415897 Eh       
E(XC)              :      -44.679984767901 Eh       

---------------
SCF CONVERGENCE
---------------

  Last Energy change         ...   -1.9601e-09  Tolerance :   1.0000e-08
  Last MAX-Density change    ...    3.1696e-13  Tolerance :   1.0000e-07
  Last RMS-Density change    ...    2.4963e-15  Tolerance :   5.0000e-09
  Last Orbital Gradient      ...    5.1017e-07  Tolerance :   1.0000e-05
  Last Orbital Rotation      ...    1.9830e-06  Tolerance :   1.0000e-05

             **** THE GBW FILE WAS UPDATED (AT-v/e/frag_02_c00001.gbw) ****
             **** DENSITY FILE WAS UPDATED (AT-v/e/frag_02_c00001.scfp.tmp) ****
             **** ENERGY FILE WAS UPDATED (AT-v/e/frag_02_c00001.en.tmp) ****
----------------
ORBITAL ENERGIES
----------------

  NO   OCC          E(Eh)            E(eV) 
   0   2.0000     -19.102705      -519.8110 
   1   2.0000     -14.342231      -390.2719 
   2   2.0000     -14.324833      -389.7985 
   3   2.0000     -14.317627      -389.6024 
   4   2.0000     -14.301532      -389.1645 
   5   2.0000     -10.277488      -279.6647 
   6   2.0000     -10.261057      -279.2175 
   7   2.0000     -10.253224      -279.0044 
   8   2.0000      -1.026537       -27.9335 
   9   2.0000      -0.949248       -25.8303 
  10   2.0000      -0.902702       -24.5638 
  11   2.0000      -0.882664       -24.0185 
  12   2.0000      -0.845215       -22.9995 
  13   2.0000      -0.660062       -17.9612 
  14   2.0000      -0.605762       -16.4836 
  15   2.0000      -0.570461       -15.5230 
  16   2.0000      -0.534461       -14.5434 
  17   2.0000      -0.527034       -14.3413 
  18   2.0000      -0.492615       -13.4047 
  19   2.0000      -0.472416       -12.8551 
  20   2.0000      -0.446239       -12.1428 
  21   2.0000      -0.423938       -11.5359 
  22   2.0000      -0.403420       -10.9776 
  23   2.0000      -0.394329       -10.7302 
  24   2.0000      -0.387825       -10.5533 
  25   2.0000      -0.319016        -8.6809 
  26   2.0000      -0.297673        -8.1001 
  27   2.0000      -0.275638        -7.5005 
  28   2.0000      -0.255197        -6.9443 
  29   2.0000      -0.248482        -6.7615 
  30   2.0000      -0.235081        -6.3969 
  31   0.0000      -0.053188        -1.4473 
  32   0.0000       0.034868         0.9488 
  33   0.0000       0.051274         1.3952 
  34   0.0000       0.072341         1.9685 
  35   0.0000       0.082093         2.2339 
  36   0.0000       0.085597         2.3292 
  37   0.0000       0.112066         3.0495 
  38   0.0000       0.121275         3.3001 
  39   0.0000       0.145087         3.9480 
  40   0.0000       0.211192         5.7468 
  41   0.0000       0.239615         6.5203 
  42   0.0000       0.252497         6.8708 
  43   0.0000       0.299642         8.1537 
  44   0.0000       0.326552         8.8859 
  45   0.0000       0.354789         9.6543 
  46   0.0000       0.366477         9.9723 
  47   0.0000       0.376392        10.2421 
  48   0.0000       0.471792        12.8381 
  49   0.0000       0.475356        12.9351 
  50   0.0000       0.480665        13.0796 
  51   0.0000       0.481386        13.0992 
  52   0.0000       0.491680        13.3793 
  53   0.0000       0.505341        13.7510 
  54   0.0000       0.540639        14.7115 
  55   0.0000       0.554223        15.0812 
  56   0.0000       0.562733        15.3128 
  57   0.0000       0.567572        15.4444 
  58   0.0000       0.592249        16.1159 
  59   0.0000       0.626541        17.0491 
  60   0.0000       0.641327        17.4514 
  61   0.0000       0.662606        18.0304 
  62   0.0000       0.668530        18.1916 
  63   0.0000       0.699183        19.0257 
  64   0.0000       0.721875        19.6432 
  65   0.0000       0.731602        19.9079 
  66   0.0000       0.760201        20.6861 
  67   0.0000       0.764450        20.8017 
  68   0.0000       0.786196        21.3935 
  69   0.0000       0.803343        21.8601 
  70   0.0000       0.831676        22.6310 
  71   0.0000       0.845697        23.0126 
  72   0.0000       0.860017        23.4022 
  73   0.0000       0.897788        24.4300 
  74   0.0000       0.908112        24.7110 
  75   0.0000       0.930966        25.3329 
  76   0.0000       0.952516        25.9193 
  77   0.0000       0.985522        26.8174 
  78   0.0000       1.004483        27.3334 
  79   0.0000       1.026096        27.9215 
  80   0.0000       1.031876        28.0788 
  81   0.0000       1.084296        29.5052 
  82   0.0000       1.093404        29.7530 
  83   0.0000       1.126618        30.6568 
  84   0.0000       1.174097        31.9488 
  85   0.0000       1.197210        32.5777 
  86   0.0000       1.209353        32.9082 
  87   0.0000       1.250216        34.0201 
  88   0.0000       1.265634        34.4397 
  89   0.0000       1.269892        34.5555 
  90   0.0000       1.290246        35.1094 
  91   0.0000       1.316184        35.8152 
  92   0.0000       1.336279        36.3620 
  93   0.0000       1.360011        37.0078 
  94   0.0000       1.391676        37.8694 
  95   0.0000       1.459462        39.7140 
  96   0.0000       1.501699        40.8633 
  97   0.0000       1.505355        40.9628 
  98   0.0000       1.511406        41.1275 
  99   0.0000       1.526593        41.5407 
 100   0.0000       1.536904        41.8213 
 101   0.0000       1.563590        42.5474 
 102   0.0000       1.614683        43.9378 
 103   0.0000       1.650952        44.9247 
 104   0.0000       1.667035        45.3623 
 105   0.0000       1.686634        45.8956 
 106   0.0000       1.703465        46.3536 
 107   0.0000       1.714171        46.6450 
 108   0.0000       1.720992        46.8306 
 109   0.0000       1.747139        47.5421 
 110   0.0000       1.778346        48.3913 
 111   0.0000       1.785410        48.5835 
 112   0.0000       1.815397        49.3995 
 113   0.0000       1.879556        51.1453 
 114   0.0000       1.917630        52.1814 
 115   0.0000       1.933084        52.6019 
 116   0.0000       1.968099        53.5547 
 117   0.0000       2.041937        55.5639 
 118   0.0000       2.062734        56.1299 
 119   0.0000       2.086440        56.7749 
 120   0.0000       2.125253        57.8311 
 121   0.0000       2.149312        58.4858 
 122   0.0000       2.189286        59.5735 
 123   0.0000       2.200890        59.8893 
 124   0.0000       2.211885        60.1884 
 125   0.0000       2.240929        60.9788 
 126   0.0000       2.286331        62.2142 
 127   0.0000       2.301971        62.6398 
 128   0.0000       2.305497        62.7358 
 129   0.0000       2.367132        64.4129 
 130   0.0000       2.395132        65.1749 
 131   0.0000       2.428136        66.0729 
 132   0.0000       2.512536        68.3696 
 133   0.0000       2.528382        68.8008 
 134   0.0000       2.563206        69.7484 
 135   0.0000       2.595824        70.6360 
 136   0.0000       2.618765        71.2602 
 137   0.0000       2.631298        71.6013 
 138   0.0000       2.659968        72.3814 
 139   0.0000       2.732440        74.3535 
 140   0.0000       2.748760        74.7976 
 141   0.0000       2.783349        75.7388 
 142   0.0000       2.807183        76.3873 
 143   0.0000       2.904379        79.0322 
 144   0.0000       2.923457        79.5513 
 145   0.0000       3.014372        82.0252 
 146   0.0000       3.093502        84.1785 
 147   0.0000       3.139933        85.4419 
 148   0.0000       3.199362        87.0591 
 149   0.0000       3.311455        90.1093 
 150   0.0000       3.485586        94.8476 
 151   0.0000       3.540680        96.3468 
-------
TIMINGS
-------

Total SCF time: 0 days 0 hours 0 min 19 sec 

Total time                  ....      19.570 sec
Sum of individual times     ....      19.315 sec  ( 98.7%)

Fock matrix formation       ....      17.920 sec  ( 91.6%)
  Split-RI-J                ....       3.382 sec  ( 18.9% of F)
  Chain of spheres X        ....      13.111 sec  ( 73.2% of F)
  COS-X 1 center corr.      ....       0.000 sec  (  0.0% of F)
  XC integration            ....       1.329 sec  (  7.4% of F)
    Basis function eval.    ....       0.520 sec  ( 39.1% of XC)
    Density eval.           ....       0.219 sec  ( 16.5% of XC)
    XC-Functional eval.     ....       0.066 sec  (  5.0% of XC)
    XC-Potential eval.      ....       0.427 sec  ( 32.2% of XC)
Diagonalization             ....       0.044 sec  (  0.2%)
Density matrix formation    ....       0.021 sec  (  0.1%)
Population analysis         ....       0.000 sec  (  0.0%)
Initial guess               ....       0.232 sec  (  1.2%)
Orbital Transformation      ....       0.000 sec  (  0.0%)
Orbital Orthonormalization  ....       0.000 sec  (  0.0%)
DIIS solution               ....       0.014 sec  (  0.1%)
SOSCF solution              ....       0.113 sec  (  0.6%)
Grid generation             ....       0.972 sec  (  5.0%)


-------------------------------------------------------------------------------
                          DFT DISPERSION CORRECTION                            
                                                                               
                              DFTD3 V3.1  Rev 1                                
                          USING Becke-Johnson damping                          
-------------------------------------------------------------------------------
The B3LYP functional is recognized
Active option DFTDOPT                   ...         4   

molecular C6(AA) [au] = 2439.975286 


            DFT-D V3
 parameters
 s6 scaling factor         :     1.0000 
 a1 scaling factor         :     0.3981 
 s8 scaling factor         :     1.9889 
 a2 scaling factor         :     4.4211 
 ad hoc parameters k1-k3   :    16.0000     1.3333    -4.0000 

 Edisp/kcal,au: -13.320179439758  -0.021227054841 
 E6   /kcal   :  -6.581037401 
 E8   /kcal   :  -6.739142039 
 % E8         :  50.593477883 

-------------------------   ----------------
Dispersion correction           -0.021227055
-------------------------   ----------------


-------------------------   --------------------
FINAL SINGLE POINT ENERGY      -413.182998094240
-------------------------   --------------------



           ************************************************************
           *        Program running with 6 parallel MPI-processes     *
           *              working on a common directory               *
           ************************************************************
------------------------------------------------------------------------------
                         ORCA SCF GRADIENT CALCULATION
------------------------------------------------------------------------------

Gradient of the Kohn-Sham DFT energy:
Kohn-Sham wavefunction type      ... RKS
Hartree-Fock exchange scaling    ...    0.200
Number of operators              ...    1
Number of atoms                  ...   16
Basis set dimensions             ...  152
Integral neglect threshold       ... 2.5e-11
Integral primitive cutoff        ... 2.5e-12

Nuclear repulsion gradient       ... done
One Electron Gradient            ... done
Pre-screening matrix             ... done
RI-J gradient                    ... done
COSX-gradient                    ... done
Exchange-correlation gradient    ... done
Dispersion correction            ... done

------------------
CARTESIAN GRADIENT
------------------

   1   N   :    0.014953139   -0.020257705    0.000619824
   2   C   :   -0.000954816    0.031029738    0.002970915
   3   C   :   -0.008715692   -0.005463640   -0.003551807
   4   N   :   -0.014688027    0.001719983   -0.002568205
   5   N   :   -0.002841587   -0.001865161    0.000338728
   6   N   :    0.008292898    0.011792667   -0.004656273
   7   C   :   -0.007959611   -0.025021785    0.012299849
   8   O   :    0.000633192    0.011231181   -0.004279901
   9   H   :   -0.002423177    0.001185011   -0.000784970
  10   H   :    0.002540718   -0.003986386    0.000516200
  11   H   :   -0.003046255   -0.000700495    0.003404222
  12   H   :    0.007957740    0.000061576    0.000289724
  13   H   :    0.000861473    0.001346572    0.000685919
  14   H   :    0.006981940    0.000306069   -0.001152449
  15   H   :   -0.010575162   -0.005185926    0.001437805
  16   H   :    0.008502038    0.004014997   -0.003131266

Difference to translation invariance:
           :   -0.0004811897    0.0002066950    0.0024383166

Norm of the cartesian gradient     ...    0.0598741611
RMS gradient                       ...    0.0086420908
MAX gradient                       ...    0.0310297378

-------
TIMINGS
-------

Total SCF gradient time            ...        3.879 sec

One electron gradient       ....       0.069 sec  (  1.8%)
Prescreening matrices       ....       0.082 sec  (  2.1%)
RI-J Coulomb gradient       ....       0.618 sec  ( 15.9%)
COSX gradient               ....       1.672 sec  ( 43.1%)
XC gradient                 ....       1.006 sec  ( 25.9%)
------------------------------------------------------------------------------
                         ORCA GEOMETRY RELAXATION STEP
------------------------------------------------------------------------------

Reading the OPT-File                    .... done
Getting information on internals        .... done
Copying old internal coords+grads       .... done
Making the new internal coordinates     .... (new redundants).... done
Validating the new internal coordinates .... (new redundants).... done
Calculating the B-matrix                .... done
Calculating the G,G- and P matrices     .... done
Transforming gradient to internals      .... done
Projecting the internal gradient        .... done
Number of atoms                         ....  16
Number of internal coordinates          ....  66
Current Energy                          ....  -413.182998094 Eh
Current gradient norm                   ....     0.059874161 Eh/bohr
Maximum allowed component of the step   ....  0.300
Current trust radius                    ....  0.300
Evaluating the initial hessian          ....  (Almloef) done
Projecting the Hessian                  .... done
Forming the augmented Hessian           .... done
Diagonalizing the augmented Hessian     .... done
Last element of RFO vector              ....  0.968843533
Lowest eigenvalues of augmented Hessian:
 -0.005331618  0.010131486  0.010678940  0.018943465  0.023242840
Length of the computed step             ....  0.255638380
The final length of the internal step   ....  0.255638380
Converting the step to cartesian space:
 Initial RMS(Int)=    0.0314669093
Transforming coordinates:
 Iter   0:  RMS(Cart)=    0.0602394286 RMS(Int)=    0.7695529525
 Iter   1:  RMS(Cart)=    0.0019085731 RMS(Int)=    0.0011321395
 Iter   2:  RMS(Cart)=    0.0002699577 RMS(Int)=    0.0001482052
 Iter   3:  RMS(Cart)=    0.0000928765 RMS(Int)=    0.0000622586
 Iter   4:  RMS(Cart)=    0.0000450575 RMS(Int)=    0.0000304694
 Iter   5:  RMS(Cart)=    0.0000227702 RMS(Int)=    0.0000150533
 Iter   6:  RMS(Cart)=    0.0000114201 RMS(Int)=    0.0000074489
 Iter   7:  RMS(Cart)=    0.0000057237 RMS(Int)=    0.0000036911
 Iter   8:  RMS(Cart)=    0.0000028699 RMS(Int)=    0.0000018313
 Iter   9:  RMS(Cart)=    0.0000014392 RMS(Int)=    0.0000009096
 Iter  10:  RMS(Cart)=    0.0000007217 RMS(Int)=    0.0000004523
 Iter  11:  RMS(Cart)=    0.0000003620 RMS(Int)=    0.0000002251
 Iter  12:  RMS(Cart)=    0.0000001815 RMS(Int)=    0.0000001121
 Iter  13:  RMS(Cart)=    0.0000000910 RMS(Int)=    0.0000000559
done
Storing new coordinates                 .... done

                                .--------------------.
          ----------------------|Geometry convergence|-------------------------
          Item                value                   Tolerance       Converged
          ---------------------------------------------------------------------
          RMS gradient        0.0053769100            0.0020000000      NO
          MAX gradient        0.0229653305            0.0030000000      NO
          RMS step            0.0314669093            0.0200000000      NO
          MAX step            0.1200469702            0.0300000000      NO
          ........................................................
          Max(Bonds)      0.0635      Max(Angles)    1.63
          Max(Dihed)        5.50      Max(Improp)    0.00
          ---------------------------------------------------------------------

The optimization has not yet converged - more geometry cycles are needed


    ---------------------------------------------------------------------------
                         Redundant Internal Coordinates
                            (Angstroem and degrees)

        Definition                    Value    dE/dq     Step     New-Value
    ----------------------------------------------------------------------------
     1. B(C   1,N   0)                1.2915  0.022965 -0.0150    1.2765   
     2. B(C   2,C   1)                1.5196  0.014516 -0.0195    1.5000   
     3. B(N   3,C   2)                1.3603  0.003107 -0.0025    1.3578   
     4. B(N   4,C   2)                1.2960 -0.003227  0.0020    1.2979   
     5. B(C   6,N   5)                1.3567  0.009872 -0.0081    1.3486   
     6. B(O   7,C   6)                1.2231 -0.011131  0.0059    1.2290   
     7. B(H   8,N   0)                1.0262 -0.002232  0.0029    1.0291   
     8. B(H   9,C   1)                1.1009 -0.002544  0.0038    1.1047   
     9. B(H  10,N   3)                1.0171 -0.000130  0.0002    1.0173   
    10. B(H  11,N   3)                1.0232 -0.009694  0.0124    1.0356   
    11. B(H  11,O   7)                1.8168 -0.002303  0.0463    1.8632   
    12. B(H  12,N   4)                1.0254  0.001665 -0.0021    1.0232   
    13. B(H  13,N   5)                1.0082 -0.003390  0.0041    1.0123   
    14. B(H  14,N   4)                1.8107 -0.003693  0.0635    1.8742   
    15. B(H  14,N   5)                1.0267 -0.014609  0.0184    1.0451   
    16. B(H  15,C   6)                1.1018 -0.008759  0.0132    1.1150   
    17. A(C   1,N   0,H   8)          109.56 -0.002926    0.45    110.01   
    18. A(N   0,C   1,C   2)          119.92  0.000378   -0.03    119.89   
    19. A(N   0,C   1,H   9)          123.55 -0.004512    0.73    124.28   
    20. A(C   2,C   1,H   9)          116.53  0.004129   -0.69    115.84   
    21. A(C   1,C   2,N   4)          120.08 -0.005961    0.78    120.85   
    22. A(N   3,C   2,N   4)          121.75 -0.005244    0.86    122.61   
    23. A(C   1,C   2,N   3)          118.17  0.011206   -1.63    116.54   
    24. A(C   2,N   3,H  11)          115.50  0.000943    0.49    115.99   
    25. A(C   2,N   3,H  10)          113.88  0.000690    0.15    114.03   
    26. A(H  10,N   3,H  11)          112.88 -0.003662    1.41    114.29   
    27. A(C   2,N   4,H  12)          110.59  0.000213   -0.09    110.50   
    28. A(H  12,N   4,H  14)          131.89  0.000028   -0.10    131.79   
    29. A(C   2,N   4,H  14)          116.42 -0.000461    0.22    116.64   
    30. A(H  13,N   5,H  14)          117.51 -0.005131    0.77    118.28   
    31. A(C   6,N   5,H  14)          118.56 -0.001681    0.42    118.98   
    32. A(C   6,N   5,H  13)          123.18  0.006770   -1.23    121.95   
    33. A(N   5,C   6,O   7)          123.32 -0.004386    0.82    124.14   
    34. A(O   7,C   6,H  15)          123.55  0.007106   -1.15    122.40   
    35. A(N   5,C   6,H  15)          113.12 -0.002729    0.34    113.46   
    36. A(C   6,O   7,H  11)          116.53  0.000683    0.45    116.97   
    37. L(N   3,H  11,O   7,C   2, 2) 180.38  0.000022   -0.00    180.38   
    38. L(N   3,H  11,O   7,C   2, 1) 179.11  0.003133   -0.61    178.50   
    39. L(N   4,H  14,N   5,C   6, 2) 174.29 -0.000721    0.23    174.52   
    40. L(N   4,H  14,N   5,C   6, 1) 178.29  0.006607   -1.47    176.83   
    41. D(H   9,C   1,N   0,H   8)     -0.21  0.000059   -0.71     -0.92   
    42. D(C   2,C   1,N   0,H   8)    179.52 -0.001411    2.11    181.64   
    43. D(N   4,C   2,C   1,H   9)     -0.28 -0.000209   -1.66     -1.94   
    44. D(N   4,C   2,C   1,N   0)    179.96  0.001181   -4.29    175.67   
    45. D(N   3,C   2,C   1,N   0)     -0.05  0.002176   -5.50     -5.55   
    46. D(N   3,C   2,C   1,H   9)    179.70  0.000786   -2.87    176.83   
    47. D(H  11,N   3,C   2,N   4)    -28.96 -0.000758    0.82    -28.14   
    48. D(H  11,N   3,C   2,C   1)    151.06 -0.001771    2.05    153.11   
    49. D(H  10,N   3,C   2,N   4)   -161.99  0.003109   -2.00   -163.99   
    50. D(H  10,N   3,C   2,C   1)     18.03  0.002096   -0.77     17.26   
    51. D(H  14,N   4,C   2,N   3)     11.05  0.000102    0.81     11.86   
    52. D(H  14,N   4,C   2,C   1)   -168.97  0.001137   -0.45   -169.41   
    53. D(H  12,N   4,C   2,N   3)   -179.53 -0.000925    0.95   -178.57   
    54. D(H  12,N   4,C   2,C   1)      0.45  0.000110   -0.30      0.16   
    55. D(C   6,N   5,N   4,C   2)     12.16  0.000513   -2.63      9.53   
    56. D(H  13,N   5,N   4,H  12)     34.77 -0.000104   -2.18     32.59   
    57. D(H  13,N   5,N   4,C   2)   -160.46 -0.000091   -2.21   -162.67   
    58. D(C   6,N   5,N   4,H  12)   -152.61  0.000500   -2.60   -155.21   
    59. D(H  15,C   6,N   5,H  14)   -176.26  0.001015    0.26   -176.01   
    60. D(H  15,C   6,N   5,H  13)     -6.47  0.000175    0.06     -6.41   
    61. D(O   7,C   6,N   5,H  14)      3.41 -0.000699    1.40      4.81   
    62. D(O   7,C   6,N   5,H  13)    173.20 -0.001538    1.20    174.40   
    63. D(H  11,O   7,C   6,H  15)    161.35 -0.001123    1.46    162.81   
    64. D(H  11,O   7,C   6,N   5)    -18.29  0.000805    0.20    -18.10   
    65. D(C   6,O   7,N   3,H  10)    174.19  0.001352   -0.27    173.92   
    66. D(C   6,O   7,N   3,C   2)     40.99  0.002557   -2.36     38.64   
    ----------------------------------------------------------------------------

         *************************************************************
         *                GEOMETRY OPTIMIZATION CYCLE   2            *
         *************************************************************
---------------------------------
CARTESIAN COORDINATES (ANGSTROEM)
---------------------------------
  N      3.772598   -1.676883    0.007835
  C      3.147924   -0.574428   -0.146688
  C      1.651069   -0.571143   -0.244342
  N      1.042583   -1.784530   -0.276718
  N      0.991363    0.544183   -0.317727
  N     -1.894762    0.335861    0.052627
  C     -2.373844   -0.852688    0.472896
  O     -1.670113   -1.823123    0.743902
  H      4.783730   -1.501062    0.083449
  H      3.634164    0.417060   -0.176054
  H      1.630406   -2.551007    0.042421
  H      0.071585   -1.814746    0.082148
  H      1.632501    1.341452   -0.299878
  H     -2.506992    1.086683   -0.240796
  H     -0.869902    0.433683   -0.127202
  H     -3.484510   -0.874711    0.568726

----------------------------
CARTESIAN COORDINATES (A.U.)
----------------------------
  NO LB      ZA    FRAG     MASS         X           Y           Z
   0 N     7.0000    0    14.007    7.129176   -3.168849    0.014805
   1 C     6.0000    0    12.011    5.948715   -1.085512   -0.277200
   2 C     6.0000    0    12.011    3.120068   -1.079304   -0.461739
   3 N     7.0000    0    14.007    1.970196   -3.372273   -0.522920
   4 N     7.0000    0    14.007    1.873404    1.028356   -0.600416
   5 N     7.0000    0    14.007   -3.580580    0.634685    0.099450
   6 C     6.0000    0    12.011   -4.485914   -1.611346    0.893645
   7 O     8.0000    0    15.999   -3.156056   -3.445202    1.405771
   8 H     1.0000    0     1.008    9.039939   -2.836597    0.157696
   9 H     1.0000    0     1.008    6.867576    0.788128   -0.332694
  10 H     1.0000    0     1.008    3.081022   -4.820705    0.080164
  11 H     1.0000    0     1.008    0.135276   -3.429373    0.155237
  12 H     1.0000    0     1.008    3.084980    2.534977   -0.566688
  13 H     1.0000    0     1.008   -4.737529    2.053534   -0.455038
  14 H     1.0000    0     1.008   -1.643877    0.819542   -0.240378
  15 H     1.0000    0     1.008   -6.584769   -1.652965    1.074737

--------------------------------
INTERNAL COORDINATES (ANGSTROEM)
--------------------------------
 N      0   0   0     0.000000000000     0.00000000     0.00000000
 C      1   0   0     1.276518819360     0.00000000     0.00000000
 C      2   1   0     1.500041076339   119.87367373     0.00000000
 N      3   2   1     1.357796262249   116.53766678   354.45774111
 N      3   2   1     1.297901877828   120.84849730   175.67044053
 N      5   3   2     2.917237168253   115.74216559   192.11336385
 C      6   5   3     1.348626363796   116.99708562     9.52104198
 O      7   6   5     1.228993473422   124.13868374     2.34388269
 H      1   2   3     1.029086286439   110.00851711   181.64973041
 H      2   1   3     1.104689832844   124.26096099   177.41594937
 H      4   3   2     1.017287438722   114.00934629    17.25127452
 H      4   3   2     1.035632374041   115.97533162   153.10749485
 H      5   3   2     1.023237920160   110.49289126     0.13236540
 H      6   5   3     1.012254063312   120.57070272   197.33982827
 H      6   5   3     1.045104889650     2.92380965   236.32028018
 H      7   6   5     1.115010158699   113.45593030   181.52297599

---------------------------
INTERNAL COORDINATES (A.U.)
---------------------------
 N      0   0   0     0.000000000000     0.00000000     0.00000000
 C      1   0   0     2.412270973388     0.00000000     0.00000000
 C      2   1   0     2.834666823914   119.87367373     0.00000000
 N      3   2   1     2.565863081312   116.53766678   354.45774111
 N      3   2   1     2.452679097796   120.84849730   175.67044053
 N      5   3   2     5.512779315693   115.74216559   192.11336385
 C      6   5   3     2.548534484561   116.99708562     9.52104198
 O      7   6   5     2.322461085144   124.13868374     2.34388269
 H      1   2   3     1.944691249545   110.00851711   181.64973041
 H      2   1   3     2.087561247002   124.26096099   177.41594937
 H      4   3   2     1.922394658662   114.00934629    17.25127452
 H      4   3   2     1.957061562361   115.97533162   153.10749485
 H      5   3   2     1.933639438946   110.49289126     0.13236540
 H      6   5   3     1.912882957609   120.57070272   197.33982827
 H      6   5   3     1.974962022660     2.92380965   236.32028018
 H      7   6   5     2.107063836481   113.45593030   181.52297599



           ************************************************************
           *        Program running with 6 parallel MPI-processes     *
           *              working on a common directory               *
           ************************************************************
 One Electron integrals                  ... done
 Pre-screening matrix                    ... done


           ************************************************************
           *        Program running with 6 parallel MPI-processes     *
           *              working on a common directory               *
           ************************************************************

Diagonalization of the overlap matrix:
Smallest eigenvalue                        ... 2.308e-03
Time for diagonalization                   ...    0.006 sec
Threshold for overlap eigenvalues          ... 1.000e-08
Number of eigenvalues below threshold      ... 0
Time for construction of square roots      ...    0.002 sec
Total time needed                          ...    0.008 sec

-------------------
DFT GRID GENERATION
-------------------

General Integration Accuracy     IntAcc      ...  4.340
Radial Grid Type                 RadialGrid  ... Gauss-Chebyshev
Angular Grid (max. acc.)         AngularGrid ... Lebedev-110
Angular grid pruning method      GridPruning ... 3 (G Style)
Weight generation scheme         WeightScheme... Becke
Basis function cutoff            BFCut       ...    1.0000e-11
Integration weight cutoff        WCut        ...    1.0000e-14
Grids for H and He will be reduced by one unit

# of grid points (after initial pruning)     ...  19844 (   0.0 sec)
# of grid points (after weights+screening)   ...  18649 (   0.0 sec)
nearest neighbour list constructed           ...    0.0 sec
Grid point re-assignment to atoms done       ...    0.0 sec
Grid point division into batches done        ...    0.0 sec
Reduced shell lists constructed in    0.1 sec

Total number of grid points                  ...    18649
Total number of batches                      ...      298
Average number of points per batch           ...       62
Average number of grid points per atom       ...     1166
Average number of shells per batch           ...    52.61 (73.07%)
Average number of basis functions per batch  ...   107.20 (70.52%)
Average number of large shells per batch     ...    41.27 (78.46%)
Average number of large basis fcns per batch ...    85.31 (79.59%)
Maximum spatial batch extension              ...   4.75,  9.22, 21.24 au
Average spatial batch extension              ...   0.32,  0.41,  0.63 au

Time for grid setup =    0.099 sec

--------------------
COSX GRID GENERATION
--------------------

General Integration Accuracy     IntAcc      ...  3.340
Radial Grid Type                 RadialGrid  ... Gauss-Chebyshev
Angular Grid (max. acc.)         AngularGrid ... Lebedev-50
Angular grid pruning method      GridPruning ... 3 (G Style)
Weight generation scheme         WeightScheme... Becke
Basis function cutoff            BFCut       ...    1.0000e-11
Integration weight cutoff        WCut        ...    1.0000e-14
Grids for H and He will be reduced by one unit

# of grid points (after initial pruning)     ...   7144 (   0.0 sec)
# of grid points (after weights+screening)   ...   6744 (   0.0 sec)
nearest neighbour list constructed           ...    0.0 sec
Grid point re-assignment to atoms done       ...    0.0 sec
Grid point division into batches done        ...    0.0 sec
Reduced shell lists constructed in    0.0 sec

Total number of grid points                  ...     6744
Total number of batches                      ...      113
Average number of points per batch           ...       59
Average number of grid points per atom       ...      422
Average number of shells per batch           ...    52.25 (72.57%)
Average number of basis functions per batch  ...   106.85 (70.30%)
Average number of large shells per batch     ...    40.70 (77.89%)
Average number of large basis fcns per batch ...    83.90 (78.52%)
Maximum spatial batch extension              ...   4.12,  8.58, 16.79 au
Average spatial batch extension              ...   0.38,  0.51,  0.83 au

Overlap Fitting                  UseSFitting ... on
Constructing numerical overlap ... done (      0.0 sec)
Inverting numerical overlap    ... done (      0.0 sec)
Obtaining analytic overlap     ... done (      0.0 sec)
Final contraction and storage  ... done (      0.0 sec)


General Integration Accuracy     IntAcc      ...  3.670
Radial Grid Type                 RadialGrid  ... Gauss-Chebyshev
Angular Grid (max. acc.)         AngularGrid ... Lebedev-50
Angular grid pruning method      GridPruning ... 3 (G Style)
Weight generation scheme         WeightScheme... Becke
Basis function cutoff            BFCut       ...    1.0000e-11
Integration weight cutoff        WCut        ...    1.0000e-14
Grids for H and He will be reduced by one unit

# of grid points (after initial pruning)     ...   9160 (   0.0 sec)
# of grid points (after weights+screening)   ...   8637 (   0.0 sec)
nearest neighbour list constructed           ...    0.0 sec
Grid point re-assignment to atoms done       ...    0.0 sec
Grid point division into batches done        ...    0.0 sec
Reduced shell lists constructed in    0.0 sec

Total number of grid points                  ...     8637
Total number of batches                      ...      143
Average number of points per batch           ...       60
Average number of grid points per atom       ...      540
Average number of shells per batch           ...    53.12 (73.78%)
Average number of basis functions per batch  ...   108.88 (71.63%)
Average number of large shells per batch     ...    41.12 (77.41%)
Average number of large basis fcns per batch ...    85.04 (78.10%)
Maximum spatial batch extension              ...   3.73,  9.81, 18.27 au
Average spatial batch extension              ...   0.38,  0.54,  0.80 au

Overlap Fitting                  UseSFitting ... on
Constructing numerical overlap ... done (      0.0 sec)
Inverting numerical overlap    ... done (      0.0 sec)
Obtaining analytic overlap     ... done (      0.0 sec)
Final contraction and storage  ... done (      0.0 sec)


General Integration Accuracy     IntAcc      ...  4.010
Radial Grid Type                 RadialGrid  ... Gauss-Chebyshev
Angular Grid (max. acc.)         AngularGrid ... Lebedev-110
Angular grid pruning method      GridPruning ... 3 (G Style)
Weight generation scheme         WeightScheme... Becke
Basis function cutoff            BFCut       ...    1.0000e-11
Integration weight cutoff        WCut        ...    1.0000e-14
Grids for H and He will be reduced by one unit

# of grid points (after initial pruning)     ...  17042 (   0.0 sec)
# of grid points (after weights+screening)   ...  16043 (   0.0 sec)
nearest neighbour list constructed           ...    0.0 sec
Grid point re-assignment to atoms done       ...    0.0 sec
Grid point division into batches done        ...    0.0 sec
Reduced shell lists constructed in    0.0 sec

Total number of grid points                  ...    16043
Total number of batches                      ...      259
Average number of points per batch           ...       61
Average number of grid points per atom       ...     1003
Average number of shells per batch           ...    52.82 (73.36%)
Average number of basis functions per batch  ...   107.62 (70.80%)
Average number of large shells per batch     ...    41.20 (78.00%)
Average number of large basis fcns per batch ...    85.38 (79.33%)
Maximum spatial batch extension              ...   4.40, 10.27, 24.73 au
Average spatial batch extension              ...   0.34,  0.45,  0.74 au

Overlap Fitting                  UseSFitting ... on
Constructing numerical overlap ... done (      0.0 sec)
Inverting numerical overlap    ... done (      0.0 sec)
Obtaining analytic overlap     ... done (      0.0 sec)
Final contraction and storage  ... done (      0.0 sec)

Time for X-Grid setup             =    0.298 sec
--------------
SCF ITERATIONS
--------------
ITER       Energy         Delta-E        Max-DP      RMS-DP      [F,P]     Damp
               ***  Starting incremental Fock matrix formation  ***
  0   -413.1599769792   0.000000000000 0.00890961  0.00021748  0.0342468 0.7000
  1   -413.1613303923  -0.001353413056 0.00879291  0.00020131  0.0274007 0.7000
                               ***Turning on DIIS***
  2   -413.1624056260  -0.001075233754 0.02389546  0.00052814  0.0208543 0.0000
  3   -413.1651681093  -0.002762483309 0.00324388  0.00007427  0.0034878 0.0000
                      *** Initiating the SOSCF procedure ***
                           *** Shutting down DIIS ***
                      *** Re-Reading the Fockian *** 
                      *** Removing any level shift *** 
ITER      Energy       Delta-E        Grad      Rot      Max-DP    RMS-DP
  4   -413.16522740  -0.0000592919  0.001029  0.001029  0.001431  0.000035
               *** Restarting incremental Fock matrix formation ***
  5   -413.16524097  -0.0000135700  0.000598  0.002423  0.001138  0.000034
  6   -413.16524464  -0.0000036721  0.000371  0.001574  0.000931  0.000026
  7   -413.16524472  -0.0000000745  0.000361  0.000979  0.000531  0.000016
  8   -413.16524608  -0.0000013606  0.000044  0.000190  0.000293  0.000006
  9   -413.16524602   0.0000000633  0.000057  0.000172  0.000163  0.000004
 10   -413.16524616  -0.0000001449  0.000005  0.000008  0.000016  0.000000
 11   -413.16524616   0.0000000020  0.000005  0.000010  0.000013  0.000000
                  ***Gradient check signals convergence***
              ***Rediagonalizing the Fockian in SOSCF/NRSCF***

               *****************************************************
               *                     SUCCESS                       *
               *           SCF CONVERGED AFTER  12 CYCLES          *
               *****************************************************

Setting up the final grid:

General Integration Accuracy     IntAcc      ...  4.670
Radial Grid Type                 RadialGrid  ... Gauss-Chebyshev
Angular Grid (max. acc.)         AngularGrid ... Lebedev-302
Angular grid pruning method      GridPruning ... 3 (G Style)
Weight generation scheme         WeightScheme... Becke
Basis function cutoff            BFCut       ...    1.0000e-11
Integration weight cutoff        WCut        ...    1.0000e-14
Grids for H and He will be reduced by one unit

# of grid points (after initial pruning)     ...  76848 (   0.0 sec)
# of grid points (after weights+screening)   ...  71267 (   0.1 sec)
nearest neighbour list constructed           ...    0.0 sec
Grid point re-assignment to atoms done       ...    0.0 sec
Grid point division into batches done        ...    0.3 sec
Reduced shell lists constructed in    0.5 sec

Total number of grid points                  ...    71267
Total number of batches                      ...     1121
Average number of points per batch           ...       63
Average number of grid points per atom       ...     4454
Average number of shells per batch           ...    51.00 (70.83%)
Average number of basis functions per batch  ...   103.45 (68.06%)
Average number of large shells per batch     ...    38.94 (76.35%)
Average number of large basis fcns per batch ...    79.94 (77.27%)
Maximum spatial batch extension              ...   4.59, 10.74, 17.47 au
Average spatial batch extension              ...   0.23,  0.25,  0.32 au

Final grid set up in    0.6 sec
Final integration                            ... done (   0.3 sec)
Change in XC energy                          ...    -0.000113543
Integrated number of electrons               ...    62.000242594
Previous integrated no of electrons          ...    61.998902948
Old exchange energy                            =    -10.602066013 Eh
New exchange energy                            =    -10.601723841 Eh
Exchange energy change after final integration =      0.000342172 Eh
Total energy after final integration           =   -413.165017530 Eh
Final COS-X integration done in                =     1.655 sec
Total Energy       :         -413.16501753 Eh          -11242.79170 eV
  Last Energy change         ...   -1.2541e-09  Tolerance :   1.0000e-08
  Last MAX-Density change    ...    7.1071e-14  Tolerance :   1.0000e-07
             **** THE GBW FILE WAS UPDATED (AT-v/e/frag_02_c00001.gbw) ****
             **** DENSITY FILE WAS UPDATED (AT-v/e/frag_02_c00001.scfp.tmp) ****
             **** ENERGY FILE WAS UPDATED (AT-v/e/frag_02_c00001.en.tmp) ****
Total SCF time: 0 days 0 hours 0 min 16 sec 


-------------------------------------------------------------------------------
[...]
# of grid points (after weights+screening)   ...   8644 (   0.0 sec)
nearest neighbour list constructed           ...    0.0 sec
Grid point re-assignment to atoms done       ...    0.0 sec
Grid point division into batches done        ...    0.0 sec
Reduced shell lists constructed in    0.0 sec

Total number of grid points                  ...     8644
Total number of batches                      ...      142
Average number of points per batch           ...       60
Average number of grid points per atom       ...      540
Average number of shells per batch           ...    52.48 (72.89%)
Average number of basis functions per batch  ...   106.96 (70.37%)
Average number of large shells per batch     ...    41.36 (78.81%)
Average number of large basis fcns per batch ...    85.76 (80.18%)
Maximum spatial batch extension              ...   3.94, 10.84, 17.06 au
Average spatial batch extension              ...   0.38,  0.48,  0.70 au

Overlap Fitting                  UseSFitting ... on
Constructing numerical overlap ... done (      0.0 sec)
Inverting numerical overlap    ... done (      0.0 sec)
Obtaining analytic overlap     ... done (      0.0 sec)
Final contraction and storage  ... done (      0.0 sec)


General Integration Accuracy     IntAcc      ...  4.010
Radial Grid Type                 RadialGrid  ... Gauss-Chebyshev
Angular Grid (max. acc.)         AngularGrid ... Lebedev-110
Angular grid pruning method      GridPruning ... 3 (G Style)
Weight generation scheme         WeightScheme... Becke
Basis function cutoff            BFCut       ...    1.0000e-11
Integration weight cutoff        WCut        ...    1.0000e-14
Grids for H and He will be reduced by one unit

# of grid points (after initial pruning)     ...  17042 (   0.0 sec)
# of grid points (after weights+screening)   ...  16045 (   0.0 sec)
nearest neighbour list constructed           ...    0.0 sec
Grid point re-assignment to atoms done       ...    0.0 sec
Grid point division into batches done        ...    0.0 sec
Reduced shell lists constructed in    0.0 sec

Total number of grid points                  ...    16045
Total number of batches                      ...      260
Average number of points per batch           ...       61
Average number of grid points per atom       ...     1003
Average number of shells per batch           ...    53.00 (73.61%)
Average number of basis functions per batch  ...   108.33 (71.27%)
Average number of large shells per batch     ...    41.44 (78.20%)
Average number of large basis fcns per batch ...    85.76 (79.16%)
Maximum spatial batch extension              ...   3.98,  9.70, 17.60 au
Average spatial batch extension              ...   0.34,  0.42,  0.67 au

Overlap Fitting                  UseSFitting ... on
Constructing numerical overlap ... done (      0.0 sec)
Inverting numerical overlap    ... done (      0.0 sec)
Obtaining analytic overlap     ... done (      0.0 sec)
Final contraction and storage  ... done (      0.0 sec)

Time for X-Grid setup             =    0.307 sec
--------------
SCF ITERATIONS
--------------
ITER       Energy         Delta-E        Max-DP      RMS-DP      [F,P]     Damp
               ***  Starting incremental Fock matrix formation  ***
                      *** Initiating the SOSCF procedure ***
                      *** Re-Reading the Fockian *** 
                      *** Removing any level shift *** 
ITER      Energy       Delta-E        Grad      Rot      Max-DP    RMS-DP
  0   -413.16685885 -413.1668588451  0.001610  0.001610  0.007994  0.000156
               *** Restarting incremental Fock matrix formation ***
  1   -413.16701996  -0.0001611199  0.000474  0.001061  0.002183  0.000056
  2   -413.16703552  -0.0000155551  0.000237  0.001044  0.001425  0.000033
  3   -413.16703235   0.0000031723  0.000469  0.000757  0.000977  0.000021
  4   -413.16703694  -0.0000045947  0.000029  0.000122  0.000151  0.000004
  5   -413.16703688   0.0000000610  0.000068  0.000087  0.000121  0.000003
  6   -413.16703698  -0.0000000938  0.000014  0.000040  0.000045  0.000001
  7   -413.16703697   0.0000000050  0.000020  0.000024  0.000025  0.000001
                  ***Gradient check signals convergence***
              ***Rediagonalizing the Fockian in SOSCF/NRSCF***

               *****************************************************
               *                     SUCCESS                       *
               *           SCF CONVERGED AFTER   8 CYCLES          *
               *****************************************************

Setting up the final grid:

General Integration Accuracy     IntAcc      ...  4.670
Radial Grid Type                 RadialGrid  ... Gauss-Chebyshev
Angular Grid (max. acc.)         AngularGrid ... Lebedev-302
Angular grid pruning method      GridPruning ... 3 (G Style)
Weight generation scheme         WeightScheme... Becke
Basis function cutoff            BFCut       ...    1.0000e-11
Integration weight cutoff        WCut        ...    1.0000e-14
Grids for H and He will be reduced by one unit

# of grid points (after initial pruning)     ...  76848 (   0.0 sec)
# of grid points (after weights+screening)   ...  71266 (   0.1 sec)
nearest neighbour list constructed           ...    0.0 sec
Grid point re-assignment to atoms done       ...    0.0 sec
Grid point division into batches done        ...    0.3 sec
Reduced shell lists constructed in    0.5 sec

Total number of grid points                  ...    71266
Total number of batches                      ...     1121
Average number of points per batch           ...       63
Average number of grid points per atom       ...     4454
Average number of shells per batch           ...    50.70 (70.41%)
Average number of basis functions per batch  ...   102.90 (67.70%)
Average number of large shells per batch     ...    38.80 (76.53%)
Average number of large basis fcns per batch ...    79.67 (77.43%)
Maximum spatial batch extension              ...   4.33, 13.34, 21.69 au
Average spatial batch extension              ...   0.23,  0.26,  0.33 au

Final grid set up in    0.6 sec
Final integration                            ... done (   0.3 sec)
Change in XC energy                          ...    -0.000517419
Integrated number of electrons               ...    62.000105846
Previous integrated no of electrons          ...    61.999721327
Old exchange energy                            =    -10.604291634 Eh
New exchange energy                            =    -10.604023380 Eh
Exchange energy change after final integration =      0.000268254 Eh
Total energy after final integration           =   -413.167286143 Eh
Final COS-X integration done in                =     1.616 sec

----------------
TOTAL SCF ENERGY
----------------

Total Energy       :         -413.16728614 Eh          -11242.85343 eV

Components:
Nuclear Repulsion  :          353.06267936 Eh            9607.32393 eV
Electronic Energy  :         -766.22996551 Eh          -20850.17736 eV
One Electron Energy:        -1261.79596471 Eh          -34335.21377 eV
Two Electron Energy:          495.56599921 Eh           13485.03640 eV

Virial components:
Potential Energy   :         -823.83881126 Eh          -22417.79375 eV
Kinetic Energy     :          410.67152512 Eh           11174.94032 eV
Virial Ratio       :            2.00607727


DFT components:
N(Alpha)           :       31.000052923124 electrons
N(Beta)            :       31.000052923124 electrons
N(Total)           :       62.000105846247 electrons
E(X)               :      -42.188288819899 Eh       
E(C)               :       -2.494442951748 Eh       
E(XC)              :      -44.682731771647 Eh       

---------------
SCF CONVERGENCE
---------------

  Last Energy change         ...   -8.6373e-09  Tolerance :   1.0000e-08
  Last MAX-Density change    ...    5.7760e-15  Tolerance :   1.0000e-07
  Last RMS-Density change    ...    9.3993e-17  Tolerance :   5.0000e-09
  Last Orbital Gradient      ...    1.8363e-06  Tolerance :   1.0000e-05
  Last Orbital Rotation      ...    3.4999e-06  Tolerance :   1.0000e-05

             **** THE GBW FILE WAS UPDATED (AT-v/e/frag_02_c00001.gbw) ****
             **** DENSITY FILE WAS UPDATED (AT-v/e/frag_02_c00001.scfp.tmp) ****
             **** ENERGY FILE WAS UPDATED (AT-v/e/frag_02_c00001.en.tmp) ****
----------------
ORBITAL ENERGIES
----------------

  NO   OCC          E(Eh)            E(eV) 
   0   2.0000     -19.099784      -519.7315 
   1   2.0000     -14.340774      -390.2323 
   2   2.0000     -14.328561      -389.9000 
   3   2.0000     -14.318549      -389.6275 
   4   2.0000     -14.296372      -389.0240 
   5   2.0000     -10.275705      -279.6161 
   6   2.0000     -10.256884      -279.1040 
   7   2.0000     -10.249978      -278.9161 
   8   2.0000      -1.018782       -27.7225 
   9   2.0000      -0.951555       -25.8931 
  10   2.0000      -0.904451       -24.6114 
  11   2.0000      -0.885932       -24.1074 
  12   2.0000      -0.842649       -22.9296 
  13   2.0000      -0.662531       -18.0284 
  14   2.0000      -0.599476       -16.3126 
  15   2.0000      -0.569693       -15.5021 
  16   2.0000      -0.534561       -14.5461 
  17   2.0000      -0.529806       -14.4167 
  18   2.0000      -0.498774       -13.5723 
  19   2.0000      -0.470625       -12.8064 
  20   2.0000      -0.447059       -12.1651 
  21   2.0000      -0.423794       -11.5320 
  22   2.0000      -0.398837       -10.8529 
  23   2.0000      -0.396569       -10.7912 
  24   2.0000      -0.387309       -10.5392 
  25   2.0000      -0.319767        -8.7013 
  26   2.0000      -0.297149        -8.0858 
  27   2.0000      -0.273540        -7.4434 
  28   2.0000      -0.255167        -6.9434 
  29   2.0000      -0.244333        -6.6486 
  30   2.0000      -0.228003        -6.2043 
  31   0.0000      -0.048459        -1.3186 
  32   0.0000       0.039000         1.0612 
  33   0.0000       0.052118         1.4182 
  34   0.0000       0.069504         1.8913 
  35   0.0000       0.085802         2.3348 
  36   0.0000       0.093823         2.5530 
  37   0.0000       0.113045         3.0761 
  38   0.0000       0.122797         3.3415 
  39   0.0000       0.147969         4.0264 
  40   0.0000       0.209894         5.7115 
  41   0.0000       0.231667         6.3040 
  42   0.0000       0.260386         7.0855 
  43   0.0000       0.299756         8.1568 
  44   0.0000       0.332104         9.0370 
  45   0.0000       0.360830         9.8187 
  46   0.0000       0.363027         9.8785 
  47   0.0000       0.380297        10.3484 
  48   0.0000       0.469856        12.7854 
  49   0.0000       0.471807        12.8385 
  50   0.0000       0.480432        13.0732 
  51   0.0000       0.482337        13.1251 
  52   0.0000       0.496126        13.5003 
  53   0.0000       0.502774        13.6812 
  54   0.0000       0.527875        14.3642 
  55   0.0000       0.533237        14.5101 
  56   0.0000       0.562859        15.3162 
  57   0.0000       0.574990        15.6463 
  58   0.0000       0.578202        15.7337 
  59   0.0000       0.625340        17.0164 
  60   0.0000       0.646305        17.5869 
  61   0.0000       0.663303        18.0494 
  62   0.0000       0.679099        18.4792 
  63   0.0000       0.698542        19.0083 
  64   0.0000       0.725905        19.7529 
  65   0.0000       0.727262        19.7898 
  66   0.0000       0.756787        20.5932 
  67   0.0000       0.761455        20.7202 
  68   0.0000       0.789870        21.4935 
  69   0.0000       0.806839        21.9552 
  70   0.0000       0.838625        22.8202 
  71   0.0000       0.848937        23.1008 
  72   0.0000       0.858277        23.3549 
  73   0.0000       0.899918        24.4880 
  74   0.0000       0.924849        25.1664 
  75   0.0000       0.944238        25.6940 
  76   0.0000       0.976034        26.5592 
  77   0.0000       0.987128        26.8611 
  78   0.0000       1.001184        27.2436 
  79   0.0000       1.028945        27.9990 
  80   0.0000       1.050490        28.5853 
  81   0.0000       1.091504        29.7013 
  82   0.0000       1.116920        30.3929 
  83   0.0000       1.135077        30.8870 
  84   0.0000       1.177440        32.0398 
  85   0.0000       1.189757        32.3749 
  86   0.0000       1.215207        33.0675 
  87   0.0000       1.238844        33.7106 
  88   0.0000       1.272033        34.6138 
  89   0.0000       1.280007        34.8307 
  90   0.0000       1.288425        35.0598 
  91   0.0000       1.309013        35.6201 
  92   0.0000       1.331078        36.2205 
  93   0.0000       1.350551        36.7504 
  94   0.0000       1.390615        37.8406 
  95   0.0000       1.462479        39.7961 
  96   0.0000       1.494342        40.6631 
  97   0.0000       1.501497        40.8578 
  98   0.0000       1.525818        41.5196 
  99   0.0000       1.528617        41.5958 
 100   0.0000       1.550984        42.2044 
 101   0.0000       1.584056        43.1043 
 102   0.0000       1.600921        43.5633 
 103   0.0000       1.655442        45.0469 
 104   0.0000       1.674752        45.5723 
 105   0.0000       1.698841        46.2278 
 106   0.0000       1.700345        46.2687 
 107   0.0000       1.715784        46.6888 
 108   0.0000       1.737816        47.2884 
 109   0.0000       1.739826        47.3431 
 110   0.0000       1.790835        48.7311 
 111   0.0000       1.807523        49.1852 
 112   0.0000       1.835267        49.9402 
 113   0.0000       1.873842        50.9898 
 114   0.0000       1.908674        51.9377 
 115   0.0000       1.917120        52.1675 
 116   0.0000       1.975832        53.7651 
 117   0.0000       2.068450        56.2854 
 118   0.0000       2.089615        56.8613 
 119   0.0000       2.104829        57.2753 
 120   0.0000       2.120984        57.7149 
 121   0.0000       2.149993        58.5043 
 122   0.0000       2.165609        58.9292 
 123   0.0000       2.195110        59.7320 
 124   0.0000       2.208702        60.1018 
 125   0.0000       2.252588        61.2960 
 126   0.0000       2.290228        62.3203 
 127   0.0000       2.296655        62.4952 
 128   0.0000       2.312452        62.9250 
 129   0.0000       2.366093        64.3847 
 130   0.0000       2.383780        64.8660 
 131   0.0000       2.421796        65.9004 
 132   0.0000       2.485909        67.6450 
 133   0.0000       2.507461        68.2315 
 134   0.0000       2.554360        69.5077 
 135   0.0000       2.557448        69.5917 
 136   0.0000       2.601608        70.7933 
 137   0.0000       2.644818        71.9691 
 138   0.0000       2.669127        72.6306 
 139   0.0000       2.736731        74.4702 
 140   0.0000       2.766270        75.2740 
 141   0.0000       2.797658        76.1281 
 142   0.0000       2.806819        76.3774 
 143   0.0000       2.913874        79.2906 
 144   0.0000       2.937808        79.9418 
 145   0.0000       3.049099        82.9702 
 146   0.0000       3.089821        84.0783 
 147   0.0000       3.139461        85.4291 
 148   0.0000       3.216070        87.5137 
 149   0.0000       3.372388        91.7674 
 150   0.0000       3.469704        94.4155 
 151   0.0000       3.526106        95.9502 
-------
TIMINGS
-------

Total SCF time: 0 days 0 hours 0 min 12 sec 

Total time                  ....      12.492 sec
Sum of individual times     ....      12.430 sec  ( 99.5%)

Fock matrix formation       ....      11.316 sec  ( 90.6%)
  Split-RI-J                ....       2.054 sec  ( 18.2% of F)
  Chain of spheres X        ....       8.383 sec  ( 74.1% of F)
  COS-X 1 center corr.      ....       0.000 sec  (  0.0% of F)
  XC integration            ....       0.833 sec  (  7.4% of F)
    Basis function eval.    ....       0.307 sec  ( 36.9% of XC)
    Density eval.           ....       0.129 sec  ( 15.5% of XC)
    XC-Functional eval.     ....       0.041 sec  (  4.9% of XC)
    XC-Potential eval.      ....       0.244 sec  ( 29.2% of XC)
Diagonalization             ....       0.005 sec  (  0.0%)
Density matrix formation    ....       0.006 sec  (  0.0%)
Population analysis         ....       0.000 sec  (  0.0%)
Initial guess               ....       0.007 sec  (  0.1%)
Orbital Transformation      ....       0.000 sec  (  0.0%)
Orbital Orthonormalization  ....       0.005 sec  (  0.0%)
DIIS solution               ....       0.001 sec  (  0.0%)
SOSCF solution              ....       0.122 sec  (  1.0%)
Grid generation             ....       0.974 sec  (  7.8%)


-------------------------------------------------------------------------------
                          DFT DISPERSION CORRECTION                            
                                                                               
                              DFTD3 V3.1  Rev 1                                
                          USING Becke-Johnson damping                          
-------------------------------------------------------------------------------
The B3LYP functional is recognized
Active option DFTDOPT                   ...         4   

molecular C6(AA) [au] = 2439.681499 


            DFT-D V3
 parameters
 s6 scaling factor         :     1.0000 
 a1 scaling factor         :     0.3981 
 s8 scaling factor         :     1.9889 
 a2 scaling factor         :     4.4211 
 ad hoc parameters k1-k3   :    16.0000     1.3333    -4.0000 

 Edisp/kcal,au: -13.167838750531  -0.020984284525 
 E6   /kcal   :  -6.507838259 
 E8   /kcal   :  -6.660000491 
 % E8         :  50.577779827 

-------------------------   ----------------
Dispersion correction           -0.020984285
-------------------------   ----------------


-------------------------   --------------------
FINAL SINGLE POINT ENERGY      -413.188270427970
-------------------------   --------------------

                                *** OPTIMIZATION RUN DONE ***

                            ***************************************
                            *     ORCA property calculations      *
                            ***************************************

                                    ---------------------
                                    Active property flags
                                    ---------------------
   (+) Dipole Moment


------------------------------------------------------------------------------
                       ORCA ELECTRIC PROPERTIES CALCULATION
------------------------------------------------------------------------------

Dipole Moment Calculation                       ... on
Quadrupole Moment Calculation                   ... off
Polarizability Calculation                      ... off
GBWName                                         ... AT-v/e/frag_02_c00001.gbw
Electron density file                           ... AT-v/e/frag_02_c00001.scfp.tmp
The origin for moment calculation is the CENTER OF MASS  = ( 1.004926, -1.525130  0.076969)

-------------
DIPOLE MOMENT
-------------
                                X             Y             Z
Electronic contribution:      0.09802      -1.66418       0.19141
Nuclear contribution   :      0.59414       2.85599      -0.35456
                        -----------------------------------------
Total Dipole Moment    :      0.69216       1.19181      -0.16315
                        -----------------------------------------
Magnitude (a.u.)       :      1.38784
Magnitude (Debye)      :      3.52762


Timings for individual modules:

Sum of individual times         ...      187.699 sec (=   3.128 min)
GTO integral calculation        ...        7.093 sec (=   0.118 min)   3.8 %
SCF iterations                  ...      144.775 sec (=   2.413 min)  77.1 %
SCF Gradient evaluation         ...       35.203 sec (=   0.587 min)  18.8 %
Geometry relaxation             ...        0.628 sec (=   0.010 min)   0.3 %
                             ****ORCA TERMINATED NORMALLY****
TOTAL RUN TIME: 0 days 0 hours 3 minutes 9 seconds 957 msec
