
                                 *****************
                                 * O   R   C   A *
                                 *****************

           --- An Ab Initio, DFT and Semiempirical electronic structure package ---

                  #######################################################
                  #                        -***-                        #
                  #  Department of molecular theory and spectroscopy    #
                  #              Directorship: Frank Neese              #
                  # Max Planck Institute for Chemical Energy Conversion #
                  #                  D-45470 Muelheim/Ruhr              #
                  #                       Germany                       #
                  #                                                     #
                  #                  All rights reserved                #
                  #                        -***-                        #
                  #######################################################


                         Program Version 4.0.1.2 - RELEASE -


 With contributions from (in alphabetic order):
   Daniel Aravena         : Magnetic Properties
   Michael Atanasov       : Ab Initio Ligand Field Theory
   Ute Becker             : Parallelization
   Martin Brehm           : Molecular dynamics
   Dmytro Bykov           : SCF Hessian
   Vijay G. Chilkuri      : MRCI spin determinant printing
   Dipayan Datta          : RHF DLPNO-CCSD density
   Achintya Kumar Dutta   : EOM-CC, STEOM-CC
   Dmitry Ganyushin       : Spin-Orbit,Spin-Spin,Magnetic field MRCI
   Yang Guo               : DLPNO-NEVPT2, CIM, IAO-localization
   Andreas Hansen         : Spin unrestricted coupled pair/coupled cluster methods
   Lee Huntington         : MR-EOM, pCC
   Robert Izsak           : Overlap fitted RIJCOSX, COSX-SCS-MP3, EOM
   Christian Kollmar      : KDIIS, OOCD, Brueckner-CCSD(T), CCSD density
   Simone Kossmann        : Meta GGA functionals, TD-DFT gradient, OOMP2, MP2 Hessian
   Martin Krupicka        : AUTO-CI
   Dagmar Lenk            : GEPOL surface
   Dimitrios Liakos       : Extrapolation schemes; parallel MDCI
   Dimitrios Manganas     : ROCIS; embedding schemes
   Dimitrios Pantazis     : SARC Basis sets
   Taras Petrenko         : DFT Hessian,TD-DFT gradient, ASA, ECA, R-Raman, ABS, FL, XAS/XES, NRVS
   Peter Pinski           : DLPNO-MP2
   Christoph Reimann      : Effective Core Potentials
   Marius Retegan         : Local ZFS, SOC
   Christoph Riplinger    : Optimizer, TS searches, QM/MM, DLPNO-CCSD(T), (RO)-DLPNO pert. Triples
   Tobias Risthaus        : Range-separated hybrids, TD-DFT gradient, RPA, STAB
   Michael Roemelt        : Restricted open shell CIS
   Masaaki Saitow         : Open-shell DLPNO
   Barbara Sandhoefer     : DKH picture change effects
   Kantharuban Sivalingam : CASSCF convergence, NEVPT2, FIC-MRCI
   Georgi Stoychev        : AutoAux
   Boris Wezisla          : Elementary symmetry handling
   Frank Wennmohs         : Technical directorship


 We gratefully acknowledge several colleagues who have allowed us to
 interface, adapt or use parts of their codes:
   Stefan Grimme, W. Hujo, H. Kruse,             : VdW corrections, initial TS optimization,
                  C. Bannwarth                     DFT functionals, gCP, sTDA/sTD-DF
   Ed Valeev                                     : LibInt (2-el integral package), F12 methods
   Garnet Chan, S. Sharma, J. Yang, R. Olivares  : DMRG
   Ulf Ekstrom                                   : XCFun DFT Library
   Mihaly Kallay                                 : mrcc  (arbitrary order and MRCC methods)
   Andreas Klamt, Michael Diedenhofen            : otool_cosmo (COSMO solvation model)
   Jiri Pittner, Ondrej Demel                    : Mk-CCSD
   Frank Weinhold                                : gennbo (NPA and NBO analysis)
   Christopher J. Cramer and Donald G. Truhlar   : smd solvation model


 Your calculation uses the libint2 library for the computation of 2-el integrals
 For citations please refer to: http://libint.valeyev.net

 This ORCA versions uses:
   CBLAS   interface :  Fast vector & matrix operations
   LAPACKE interface :  Fast linear algebra routines
   SCALAPACK package :  Parallel linear algebra routines


Your calculation utilizes the atom-pairwise dispersion correction
with the Becke-Johnson damping scheme (D3BJ)
Cite in your paper:
S.Grimme, S.Ehrlich, L.Goerigk, J Comput Chem, (2011), 32, 1456–1465 
S.Grimme, J.Antony, S.Ehrlich and H.Krieg, J.Chem.Phys., 132, (2010), 154104 
   

Your calculation utilizes the basis: cc-pVDZ 
       H, B-Ne : Obtained from the ccRepo (grant-hill.group.shef.ac.uk/ccrepo) Feb. 2017
                 T. H. Dunning, Jr., J. Chem. Phys. 90, 1007 (1989)
            He : Obtained from the ccRepo (grant-hill.group.shef.ac.uk/ccrepo) Feb. 2017
                 D. E. Woon, T. H. Dunning, Jr., J. Chem. Phys. 100, 2975 (1994)
  Li-Be, Na-Mg : Obtained from the ccRepo (grant-hill.group.shef.ac.uk/ccrepo) Feb. 2017
                 B. P. Prascher, D. E. Woon, K. A. Peterson, T. H. Dunning, Jr., A. K. Wilson, Theor. Chem. Acc. 128, 69 (2011)
         Al-Ar : Obtained from the ccRepo (grant-hill.group.shef.ac.uk/ccrepo) Feb. 2017
                 D. E. Woon, T. H. Dunning, Jr., J. Chem. Phys. 98, 1358 (1993)
            Ca : Obtained from the Peterson Research Group Website (tyr0.chem.wsu.edu/~kipeters) Feb. 2017
                 J. Koput, K. A. Peterson, J. Phys. Chem. 106, 9595 (2002)
         Sc-Zn : Obtained from the ccRepo (grant-hill.group.shef.ac.uk/ccrepo) Feb. 2017
                 N. B. Balabanov, K. A. Peterson, J. Chem. Phys. 123, 064107 (2005)
                 N. B. Balabanov, K. A. Peterson, J. Chem. Phys. 125, 074110 (2006)
         Ga-Kr : Obtained from the ccRepo (grant-hill.group.shef.ac.uk/ccrepo) Feb. 2017
                 A. K. Wilson, D. E. Woon, K. A. Peterson, T. H. Dunning, Jr., J. Chem. Phys. 110, 7667 (1999)

Your calculation utilizes the auxiliary basis: def2/J
   F. Weigend, Phys. Chem. Chem. Phys. 8, 1057 (2006).

================================================================================
                                        WARNINGS
                       Please study these warnings very carefully!
================================================================================

Warning: TCutStore was < 0. Adjusted to Thresh (uncritical)

WARNING: Geometry Optimization
  ===> : Switching off AutoStart
         For restart on a previous wavefunction, please use MOREAD

INFO   : the flag for use of LIBINT has been found!

================================================================================
                                       INPUT FILE
================================================================================
NAME = g8raf/frag_22_c00001.com
|  1> %pal nprocs 6 end
|  2> %maxcore 1000
|  3> ! b3lyp TIGHTSCF nopop D3BJ
|  4> ! cc-pvdz def2/J RIJCOSX
|  5> ! Opt
|  6> 
|  7> %geom
|  8> maxiter 60
|  9> TolE 1e-4
| 10> TolRMSG 2e-3
| 11> TolMaxG 3e-3
| 12> TolRMSD 2e-2
| 13> TolMaxD 3e-2
| 14> end
| 15> 
| 16> *xyz 0 1
| 17> C 3.0983 -0.7092 -0.0055
| 18> C 1.7562 -0.6816 -0.0062
| 19> N 1.0926 -1.8863 -0.014
| 20> N 0.9782 0.4436 0.0012
| 21> C 1.4846 1.6264 0.0086
| 22> H 3.6287 -1.656 -0.03
| 23> H 3.7247 0.1705 -0.0032
| 24> H 1.5557 -2.5941 0.5443
| 25> H 0.1359 -1.7232 0.2894
| 26> H 2.5567 1.8759 0.009
| 27> H 0.8 2.4902 0.0136
| 28> *
| 29> 
| 30> 
| 31>                          ****END OF INPUT****
================================================================================

                       *****************************
                       * Geometry Optimization Run *
                       *****************************

Geometry optimization settings:
Update method            Update   .... BFGS
Choice of coordinates    CoordSys .... Redundant Internals
Initial Hessian          InHess   .... Almoef's Model

Convergence Tolerances:
Energy Change            TolE     ....  1.0000e-04 Eh
Max. Gradient            TolMAXG  ....  3.0000e-03 Eh/bohr
RMS Gradient             TolRMSG  ....  2.0000e-03 Eh/bohr
Max. Displacement        TolMAXD  ....  3.0000e-02 bohr
RMS Displacement         TolRMSD  ....  2.0000e-02 bohr

------------------------------------------------------------------------------
                        ORCA OPTIMIZATION COORDINATE SETUP
------------------------------------------------------------------------------

The optimization will be done in new redundant internal coordinates
Making redundant internal coordinates   ...  (new redundants) done
Evaluating the initial hessian          ...  (Almloef) done
Evaluating the coordinates              ...  done
Calculating the B-matrix                .... done
Calculating the G-matrix                .... done
Diagonalizing the G-matrix              .... done
The first mode is                       ....    8
The number of degrees of freedom        ....   27

    -----------------------------------------------------------------
                    Redundant Internal Coordinates


    -----------------------------------------------------------------
         Definition                    Initial Value    Approx d2E/dq
    -----------------------------------------------------------------
      1. B(C   1,C   0)                  1.3424         0.744230   
      2. B(N   2,C   1)                  1.3754         0.590428   
      3. B(N   3,C   1)                  1.3680         0.606710   
      4. B(C   4,N   3)                  1.2867         0.817969   
      5. B(H   5,C   0)                  1.0855         0.366075   
      6. B(H   6,C   0)                  1.0799         0.373667   
      7. B(H   7,N   2)                  1.0135         0.427212   
      8. B(H   8,N   2)                  1.0168         0.421998   
      9. B(H   9,C   4)                  1.1007         0.346157   
     10. B(H  10,C   4)                  1.1022         0.344313   
     11. A(C   1,C   0,H   6)          124.2751         0.366359   
     12. A(C   1,C   0,H   5)          120.4264         0.365073   
     13. A(H   5,C   0,H   6)          115.2852         0.293296   
     14. A(N   2,C   1,N   3)          116.4920         0.423035   
     15. A(C   0,C   1,N   3)          125.8385         0.443924   
     16. A(C   0,C   1,N   2)          117.6694         0.441746   
     17. A(H   7,N   2,H   8)          112.1835         0.301430   
     18. A(C   1,N   2,H   8)          108.1655         0.354193   
     19. A(C   1,N   2,H   7)          112.8377         0.354932   
     20. A(C   1,N   3,C   4)          122.1622         0.448612   
     21. A(H   9,C   4,H  10)          115.2973         0.287024   
     22. A(N   3,C   4,H  10)          118.4249         0.364866   
     23. A(N   3,C   4,H   9)          126.2777         0.365199   
     24. D(N   2,C   1,C   0,H   5)      1.1662         0.039442   
     25. D(N   3,C   1,C   0,H   5)   -178.8865         0.039442   
     26. D(N   2,C   1,C   0,H   6)    179.7761         0.039442   
     27. D(N   3,C   1,C   0,H   6)     -0.2766         0.039442   
     28. D(H   7,N   2,C   1,N   3)   -142.9365         0.028027   
     29. D(H   8,N   2,C   1,C   0)    161.7216         0.028027   
     30. D(H   7,N   2,C   1,C   0)     37.0158         0.028027   
     31. D(H   8,N   2,C   1,N   3)    -18.2307         0.028027   
     32. D(C   4,N   3,C   1,N   2)   -179.9858         0.026924   
     33. D(C   4,N   3,C   1,C   0)      0.0663         0.026924   
     34. D(H  10,C   4,N   3,C   1)    179.9583         0.051844   
     35. D(H   9,C   4,N   3,C   1)      0.0571         0.051844   
    -----------------------------------------------------------------

Number of atoms                         .... 11
Number of degrees of freedom            .... 35

         *************************************************************
         *                GEOMETRY OPTIMIZATION CYCLE   1            *
         *************************************************************
---------------------------------
CARTESIAN COORDINATES (ANGSTROEM)
---------------------------------
  C      3.098300   -0.709200   -0.005500
  C      1.756200   -0.681600   -0.006200
  N      1.092600   -1.886300   -0.014000
  N      0.978200    0.443600    0.001200
  C      1.484600    1.626400    0.008600
  H      3.628700   -1.656000   -0.030000
  H      3.724700    0.170500   -0.003200
  H      1.555700   -2.594100    0.544300
  H      0.135900   -1.723200    0.289400
  H      2.556700    1.875900    0.009000
  H      0.800000    2.490200    0.013600

----------------------------
CARTESIAN COORDINATES (A.U.)
----------------------------
  NO LB      ZA    FRAG     MASS         X           Y           Z
   0 C     6.0000    0    12.011    5.854938   -1.340194   -0.010393
   1 C     6.0000    0    12.011    3.318737   -1.288037   -0.011716
   2 N     7.0000    0    14.007    2.064715   -3.564590   -0.026456
   3 N     7.0000    0    14.007    1.848530    0.838283    0.002268
   4 C     6.0000    0    12.011    2.805487    3.073451    0.016252
   5 H     1.0000    0     1.008    6.857249   -3.129386   -0.056692
   6 H     1.0000    0     1.008    7.038663    0.322198   -0.006047
   7 H     1.0000    0     1.008    2.939847   -4.902139    1.028578
   8 H     1.0000    0     1.008    0.256814   -3.256376    0.546887
   9 H     1.0000    0     1.008    4.831463    3.544937    0.017008
  10 H     1.0000    0     1.008    1.511781    4.705796    0.025700

--------------------------------
INTERNAL COORDINATES (ANGSTROEM)
--------------------------------
 C      0   0   0     0.000000000000     0.00000000     0.00000000
 C      1   0   0     1.342383946567     0.00000000     0.00000000
 N      2   1   0     1.375400992438   117.66943754     0.00000000
 N      2   1   3     1.367996271925   125.83854591   179.94732080
 C      4   2   1     1.286666841105   122.16219524     0.06633717
 H      1   2   3     1.085520451212   120.42641876     1.16619624
 H      1   2   3     1.079932562709   124.27505635   179.77608690
 H      3   2   1     1.013479817263   112.83767435    37.01581329
 H      3   2   1     1.016822531222   108.16552662   161.72161855
 H      5   4   2     1.100749208494   126.27772660     0.05712983
 H      5   4   2     1.102203520227   118.42493419   179.95827818

---------------------------
INTERNAL COORDINATES (A.U.)
---------------------------
 C      0   0   0     0.000000000000     0.00000000     0.00000000
 C      1   0   0     2.536738025583     0.00000000     0.00000000
 N      2   1   0     2.599131200032   117.66943754     0.00000000
 N      2   1   3     2.585138306163   125.83854591   179.94732080
 C      4   2   1     2.431447955287   122.16219524     0.06633717
 H      1   2   3     2.051336365562   120.42641876     1.16619624
 H      1   2   3     2.040776786624   124.27505635   179.77608690
 H      3   2   1     1.915199296884   112.83767435    37.01581329
 H      3   2   1     1.921516110810   108.16552662   161.72161855
 H      5   4   2     2.080114546184   126.27772660     0.05712983
 H      5   4   2     2.082862797072   118.42493419   179.95827818

---------------------
BASIS SET INFORMATION
---------------------
There are 3 groups of distinct atoms

 Group   1 Type C   : 17s4p1d contracted to 3s2p1d pattern {881/31/1}
 Group   2 Type N   : 17s4p1d contracted to 3s2p1d pattern {881/31/1}
 Group   3 Type H   : 4s1p contracted to 2s1p pattern {31/1}

Atom   0C    basis set group =>   1
Atom   1C    basis set group =>   1
Atom   2N    basis set group =>   2
Atom   3N    basis set group =>   2
Atom   4C    basis set group =>   1
Atom   5H    basis set group =>   3
Atom   6H    basis set group =>   3
Atom   7H    basis set group =>   3
Atom   8H    basis set group =>   3
Atom   9H    basis set group =>   3
Atom  10H    basis set group =>   3
-------------------------------
AUXILIARY BASIS SET INFORMATION
-------------------------------
There are 3 groups of distinct atoms

 Group   1 Type C   : 12s5p4d2f1g contracted to 6s4p3d1f1g pattern {711111/2111/211/2/1}
 Group   2 Type N   : 12s5p4d2f1g contracted to 6s4p3d1f1g pattern {711111/2111/211/2/1}
 Group   3 Type H   : 5s2p1d contracted to 3s1p1d pattern {311/2/1}

Atom   0C    basis set group =>   1
Atom   1C    basis set group =>   1
Atom   2N    basis set group =>   2
Atom   3N    basis set group =>   2
Atom   4C    basis set group =>   1
Atom   5H    basis set group =>   3
Atom   6H    basis set group =>   3
Atom   7H    basis set group =>   3
Atom   8H    basis set group =>   3
Atom   9H    basis set group =>   3
Atom  10H    basis set group =>   3


           ************************************************************
           *        Program running with 6 parallel MPI-processes     *
           *              working on a common directory               *
           ************************************************************
------------------------------------------------------------------------------
                           ORCA GTO INTEGRAL CALCULATION
                           -- RI-GTO INTEGRALS CHOSEN --
------------------------------------------------------------------------------

                         BASIS SET STATISTICS AND STARTUP INFO

Gaussian basis set:
 # of primitive gaussian shells          ...  140
 # of primitive gaussian functions       ...  212
 # of contracted shells                  ...   48
 # of contracted basis functions         ...  100
 Highest angular momentum                ...    2
 Maximum contraction depth               ...    8
Auxiliary gaussian basis set:
 # of primitive gaussian shells          ...  168
 # of primitive gaussian functions       ...  446
 # of contracted shells                  ...  105
 # of contracted aux-basis functions     ...  311
 Highest angular momentum                ...    4
 Maximum contraction depth               ...    7
Ratio of auxiliary to basis functions    ...  3.11
Integral package used                  ... LIBINT
 One Electron integrals                  ... done
 Ordering auxiliary basis shells         ... done
 Integral threshhold             Thresh  ...  2.500e-11
 Primitive cut-off               TCut    ...  2.500e-12
 Pre-screening matrix                    ... done
 Shell pair data                         ... 
 Ordering of the shell pairs             ... done (   0.000 sec) 1174 of 1176 pairs
 Determination of significant pairs      ... done (   0.000 sec)
 Creation of shell pair data             ... done (   0.000 sec)
 Storage of shell pair data              ... done (   0.001 sec)
 Shell pair data done in (   0.002 sec)
 Computing two index integrals           ... done
 Cholesky decomposition of the V-matrix  ... done


Timings:
 Total evaluation time                   ...   0.209 sec (  0.003 min)
 One electron matrix time                ...   0.020 sec (  0.000 min) =  9.6%
 Schwartz matrix evaluation time         ...   0.151 sec (  0.003 min) = 72.4%
 Two index repulsion integral time       ...   0.016 sec (  0.000 min) =  7.8%
 Cholesky decomposition of V             ...   0.003 sec (  0.000 min) =  1.2%
 Three index repulsion integral time     ...   0.000 sec (  0.000 min) =  0.0%



           ************************************************************
           *        Program running with 6 parallel MPI-processes     *
           *              working on a common directory               *
           ************************************************************
-------------------------------------------------------------------------------
                                 ORCA SCF
-------------------------------------------------------------------------------

------------
SCF SETTINGS
------------
Hamiltonian:
 Density Functional     Method          .... DFT(GTOs)
 Exchange Functional    Exchange        .... B88
   X-Alpha parameter    XAlpha          ....  0.666667
   Becke's b parameter  XBeta           ....  0.004200
 Correlation Functional Correlation     .... LYP
 LDA part of GGA corr.  LDAOpt          .... VWN-5
 Gradients option       PostSCFGGA      .... off
 Hybrid DFT is turned on
   Fraction HF Exchange ScalHFX         ....  0.200000
   Scaling of DF-GGA-X  ScalDFX         ....  0.720000
   Scaling of DF-GGA-C  ScalDFC         ....  0.810000
   Scaling of DF-LDA-C  ScalLDAC        ....  1.000000
   Perturbative correction              ....  0.000000
   NL short-range parameter             ....  4.800000
 RI-approximation to the Coulomb term is turned on
   Number of auxiliary basis functions  .... 311
   RIJ-COSX (HFX calculated with COS-X)).... on


General Settings:
 Integral files         IntName         .... g8raf/frag_22_c00001
 Hartree-Fock type      HFTyp           .... RHF
 Total Charge           Charge          ....    0
 Multiplicity           Mult            ....    1
 Number of Electrons    NEL             ....   38
 Basis Dimension        Dim             ....  100
 Nuclear Repulsion      ENuc            ....    165.8486958335 Eh

Convergence Acceleration:
 DIIS                   CNVDIIS         .... on
   Start iteration      DIISMaxIt       ....    12
   Startup error        DIISStart       ....  0.200000
   # of expansion vecs  DIISMaxEq       ....     5
   Bias factor          DIISBfac        ....   1.050
   Max. coefficient     DIISMaxC        ....  10.000
 Newton-Raphson         CNVNR           .... off
 SOSCF                  CNVSOSCF        .... on
   Start iteration      SOSCFMaxIt      ....   150
   Startup grad/error   SOSCFStart      ....  0.003300
 Level Shifting         CNVShift        .... on
   Level shift para.    LevelShift      ....    0.2500
   Turn off err/grad.   ShiftErr        ....    0.0010
 Zerner damping         CNVZerner       .... off
 Static damping         CNVDamp         .... on
   Fraction old density DampFac         ....    0.7000
   Max. Damping (<1)    DampMax         ....    0.9800
   Min. Damping (>=0)   DampMin         ....    0.0000
   Turn off err/grad.   DampErr         ....    0.1000
 Fernandez-Rico         CNVRico         .... off

SCF Procedure:
 Maximum # iterations   MaxIter         ....   125
 SCF integral mode      SCFMode         .... Direct
   Integral package                     .... LIBINT
 Reset frequeny         DirectResetFreq ....    20
 Integral Threshold     Thresh          ....  2.500e-11 Eh
 Primitive CutOff       TCut            ....  2.500e-12 Eh

Convergence Tolerance:
 Convergence Check Mode ConvCheckMode   .... Total+1el-Energy
 Convergence forced     ConvForced      .... 0
 Energy Change          TolE            ....  1.000e-08 Eh
 1-El. energy change                    ....  1.000e-05 Eh
 Orbital Gradient       TolG            ....  1.000e-05
 Orbital Rotation angle TolX            ....  1.000e-05
 DIIS Error             TolErr          ....  5.000e-07


Diagonalization of the overlap matrix:
Smallest eigenvalue                        ... 2.419e-03
Time for diagonalization                   ...    0.002 sec
Threshold for overlap eigenvalues          ... 1.000e-08
Number of eigenvalues below threshold      ... 0
Time for construction of square roots      ...    0.001 sec
Total time needed                          ...    0.003 sec

-------------------
DFT GRID GENERATION
-------------------

General Integration Accuracy     IntAcc      ...  4.340
Radial Grid Type                 RadialGrid  ... Gauss-Chebyshev
Angular Grid (max. acc.)         AngularGrid ... Lebedev-110
Angular grid pruning method      GridPruning ... 3 (G Style)
Weight generation scheme         WeightScheme... Becke
Basis function cutoff            BFCut       ...    1.0000e-11
Integration weight cutoff        WCut        ...    1.0000e-14
Grids for H and He will be reduced by one unit

# of grid points (after initial pruning)     ...  13136 (   0.0 sec)
# of grid points (after weights+screening)   ...  12456 (   0.0 sec)
nearest neighbour list constructed           ...    0.0 sec
Grid point re-assignment to atoms done       ...    0.0 sec
Grid point division into batches done        ...    0.0 sec
Reduced shell lists constructed in    0.0 sec

Total number of grid points                  ...    12456
Total number of batches                      ...      201
Average number of points per batch           ...       61
Average number of grid points per atom       ...     1132
Average number of shells per batch           ...    46.31 (96.49%)
Average number of basis functions per batch  ...    96.20 (96.20%)
Average number of large shells per batch     ...    42.31 (91.36%)
Average number of large basis fcns per batch ...    88.77 (92.28%)
Maximum spatial batch extension              ...   2.90,  3.75, 20.68 au
Average spatial batch extension              ...   0.28,  0.30,  0.52 au

Time for grid setup =    0.048 sec

------------------------------
INITIAL GUESS: MODEL POTENTIAL
------------------------------
Loading Hartree-Fock densities                     ... done
Calculating cut-offs                               ... done
Setting up the integral package                    ... done
Initializing the effective Hamiltonian             ... done
Starting the Coulomb interaction                   ... done (   0.0 sec)
Reading the grid                                   ... done
Mapping shells                                     ... done
Starting the XC term evaluation                    ... done (   0.0 sec)
  promolecular density results
     # of electrons  =     37.993161113
     EX              =    -30.329429550
     EC              =     -1.258886005
     EX+EC           =    -31.588315555
Transforming the Hamiltonian                       ... done (   0.0 sec)
Diagonalizing the Hamiltonian                      ... done (   0.0 sec)
Back transforming the eigenvectors                 ... done (   0.0 sec)
Now organizing SCF variables                       ... done
                      ------------------
                      INITIAL GUESS DONE (   0.2 sec)
                      ------------------
--------------------
COSX GRID GENERATION
--------------------

General Integration Accuracy     IntAcc      ...  3.340
Radial Grid Type                 RadialGrid  ... Gauss-Chebyshev
Angular Grid (max. acc.)         AngularGrid ... Lebedev-50
Angular grid pruning method      GridPruning ... 3 (G Style)
Weight generation scheme         WeightScheme... Becke
Basis function cutoff            BFCut       ...    1.0000e-11
Integration weight cutoff        WCut        ...    1.0000e-14
Grids for H and He will be reduced by one unit

# of grid points (after initial pruning)     ...   4792 (   0.0 sec)
# of grid points (after weights+screening)   ...   4569 (   0.0 sec)
nearest neighbour list constructed           ...    0.0 sec
Grid point re-assignment to atoms done       ...    0.0 sec
Grid point division into batches done        ...    0.0 sec
Reduced shell lists constructed in    0.0 sec

Total number of grid points                  ...     4569
Total number of batches                      ...       77
Average number of points per batch           ...       59
Average number of grid points per atom       ...      415
Average number of shells per batch           ...    44.29 (92.26%)
Average number of basis functions per batch  ...    92.00 (92.00%)
Average number of large shells per batch     ...    41.07 (92.74%)
Average number of large basis fcns per batch ...    85.93 (93.40%)
Maximum spatial batch extension              ...   3.04,  3.45, 18.55 au
Average spatial batch extension              ...   0.33,  0.34,  0.89 au

Overlap Fitting                  UseSFitting ... on
Constructing numerical overlap ... done (      0.0 sec)
Inverting numerical overlap    ... done (      0.0 sec)
Obtaining analytic overlap     ... done (      0.0 sec)
Final contraction and storage  ... done (      0.0 sec)


General Integration Accuracy     IntAcc      ...  3.670
Radial Grid Type                 RadialGrid  ... Gauss-Chebyshev
Angular Grid (max. acc.)         AngularGrid ... Lebedev-50
Angular grid pruning method      GridPruning ... 3 (G Style)
Weight generation scheme         WeightScheme... Becke
Basis function cutoff            BFCut       ...    1.0000e-11
Integration weight cutoff        WCut        ...    1.0000e-14
Grids for H and He will be reduced by one unit

# of grid points (after initial pruning)     ...   6146 (   0.0 sec)
# of grid points (after weights+screening)   ...   5859 (   0.0 sec)
nearest neighbour list constructed           ...    0.0 sec
Grid point re-assignment to atoms done       ...    0.0 sec
Grid point division into batches done        ...    0.0 sec
Reduced shell lists constructed in    0.0 sec

Total number of grid points                  ...     5859
Total number of batches                      ...       97
Average number of points per batch           ...       60
Average number of grid points per atom       ...      533
Average number of shells per batch           ...    45.11 (93.98%)
Average number of basis functions per batch  ...    93.78 (93.78%)
Average number of large shells per batch     ...    41.83 (92.73%)
Average number of large basis fcns per batch ...    87.50 (93.31%)
Maximum spatial batch extension              ...   3.41,  3.60, 20.08 au
Average spatial batch extension              ...   0.35,  0.34,  0.80 au

Overlap Fitting                  UseSFitting ... on
Constructing numerical overlap ... done (      0.0 sec)
Inverting numerical overlap    ... done (      0.0 sec)
Obtaining analytic overlap     ... done (      0.0 sec)
Final contraction and storage  ... done (      0.0 sec)


General Integration Accuracy     IntAcc      ...  4.010
Radial Grid Type                 RadialGrid  ... Gauss-Chebyshev
Angular Grid (max. acc.)         AngularGrid ... Lebedev-110
Angular grid pruning method      GridPruning ... 3 (G Style)
Weight generation scheme         WeightScheme... Becke
Basis function cutoff            BFCut       ...    1.0000e-11
Integration weight cutoff        WCut        ...    1.0000e-14
Grids for H and He will be reduced by one unit

# of grid points (after initial pruning)     ...  11348 (   0.0 sec)
# of grid points (after weights+screening)   ...  10779 (   0.0 sec)
nearest neighbour list constructed           ...    0.0 sec
Grid point re-assignment to atoms done       ...    0.0 sec
Grid point division into batches done        ...    0.0 sec
Reduced shell lists constructed in    0.0 sec

Total number of grid points                  ...    10779
Total number of batches                      ...      174
Average number of points per batch           ...       61
Average number of grid points per atom       ...      980
Average number of shells per batch           ...    46.10 (96.04%)
Average number of basis functions per batch  ...    95.77 (95.77%)
Average number of large shells per batch     ...    42.73 (92.70%)
Average number of large basis fcns per batch ...    89.60 (93.56%)
Maximum spatial batch extension              ...   3.00,  3.96, 19.74 au
Average spatial batch extension              ...   0.31,  0.30,  0.56 au

Overlap Fitting                  UseSFitting ... on
Constructing numerical overlap ... done (      0.0 sec)
Inverting numerical overlap    ... done (      0.0 sec)
Obtaining analytic overlap     ... done (      0.0 sec)
Final contraction and storage  ... done (      0.0 sec)

Time for X-Grid setup             =    0.151 sec
--------------
SCF ITERATIONS
--------------
ITER       Energy         Delta-E        Max-DP      RMS-DP      [F,P]     Damp
               ***  Starting incremental Fock matrix formation  ***
  0   -227.0494969240   0.000000000000 0.07983035  0.00306113  0.2375417 0.7000
  1   -227.1434873057  -0.093990381671 0.05693558  0.00216884  0.1127578 0.7000
                               ***Turning on DIIS***
  2   -227.1796593292  -0.036172023502 0.10177825  0.00345855  0.0371435 0.0000
  3   -227.2308582279  -0.051198898676 0.03351348  0.00149444  0.0615097 0.0000
  4   -227.2461246802  -0.015266452311 0.01164626  0.00047118  0.0154805 0.0000
  5   -227.2471119415  -0.000987261287 0.00360149  0.00017885  0.0067807 0.0000
                      *** Initiating the SOSCF procedure ***
                           *** Shutting down DIIS ***
                      *** Re-Reading the Fockian *** 
                      *** Removing any level shift *** 
ITER      Energy       Delta-E        Grad      Rot      Max-DP    RMS-DP
  6   -227.24721218  -0.0001002391  0.000622  0.000622  0.001135  0.000058
               *** Restarting incremental Fock matrix formation ***
  7   -227.24722566  -0.0000134843  0.000164  0.000889  0.000811  0.000041
  8   -227.24722707  -0.0000014014  0.000105  0.000377  0.000403  0.000013
  9   -227.24722734  -0.0000002733  0.000079  0.000238  0.000160  0.000008
 10   -227.24722741  -0.0000000723  0.000029  0.000042  0.000075  0.000003
 11   -227.24722742  -0.0000000055  0.000023  0.000041  0.000050  0.000002
 12   -227.24722743  -0.0000000098  0.000010  0.000012  0.000029  0.000001
 13   -227.24722743   0.0000000011  0.000007  0.000011  0.000015  0.000001
                  ***Gradient check signals convergence***
              ***Rediagonalizing the Fockian in SOSCF/NRSCF***

               *****************************************************
               *                     SUCCESS                       *
               *           SCF CONVERGED AFTER  14 CYCLES          *
               *****************************************************

Setting up the final grid:

General Integration Accuracy     IntAcc      ...  4.670
Radial Grid Type                 RadialGrid  ... Gauss-Chebyshev
Angular Grid (max. acc.)         AngularGrid ... Lebedev-302
Angular grid pruning method      GridPruning ... 3 (G Style)
Weight generation scheme         WeightScheme... Becke
Basis function cutoff            BFCut       ...    1.0000e-11
Integration weight cutoff        WCut        ...    1.0000e-14
Grids for H and He will be reduced by one unit

# of grid points (after initial pruning)     ...  51424 (   0.0 sec)
# of grid points (after weights+screening)   ...  48264 (   0.0 sec)
nearest neighbour list constructed           ...    0.0 sec
Grid point re-assignment to atoms done       ...    0.0 sec
Grid point division into batches done        ...    0.2 sec
Reduced shell lists constructed in    0.2 sec

Total number of grid points                  ...    48264
Total number of batches                      ...      760
Average number of points per batch           ...       63
Average number of grid points per atom       ...     4388
Average number of shells per batch           ...    44.80 (93.33%)
Average number of basis functions per batch  ...    92.67 (92.67%)
Average number of large shells per batch     ...    38.91 (86.85%)
Average number of large basis fcns per batch ...    81.05 (87.46%)
Maximum spatial batch extension              ...   9.57, 10.69, 23.20 au
Average spatial batch extension              ...   0.24,  0.25,  0.35 au

Final grid set up in    0.2 sec
Final integration                            ... done (   0.1 sec)
Change in XC energy                          ...    -0.000068093
Integrated number of electrons               ...    37.999939364
Previous integrated no of electrons          ...    37.999705282
Old exchange energy                            =     -6.178202697 Eh
New exchange energy                            =     -6.177817495 Eh
Exchange energy change after final integration =      0.000385203 Eh
Total energy after final integration           =   -227.246910317 Eh
Final COS-X integration done in                =     0.427 sec

----------------
TOTAL SCF ENERGY
----------------

Total Energy       :         -227.24691032 Eh           -6183.70280 eV

Components:
Nuclear Repulsion  :          165.84869583 Eh            4512.97245 eV
Electronic Energy  :         -393.09560615 Eh          -10696.67525 eV
One Electron Energy:         -634.64336785 Eh          -17269.52400 eV
Two Electron Energy:          241.54776170 Eh            6572.84875 eV

Virial components:
Potential Energy   :         -453.19480521 Eh          -12332.05760 eV
Kinetic Energy     :          225.94789489 Eh            6148.35480 eV
Virial Ratio       :            2.00574918


DFT components:
N(Alpha)           :       18.999969682053 electrons
N(Beta)            :       18.999969682053 electrons
N(Total)           :       37.999939364106 electrons
E(X)               :      -24.542911015247 Eh       
E(C)               :       -1.492489651958 Eh       
E(XC)              :      -26.035400667205 Eh       

---------------
SCF CONVERGENCE
---------------

  Last Energy change         ...   -8.6445e-10  Tolerance :   1.0000e-08
  Last MAX-Density change    ...    8.5126e-13  Tolerance :   1.0000e-07
  Last RMS-Density change    ...    8.4790e-15  Tolerance :   5.0000e-09
  Last Orbital Gradient      ...    8.0300e-07  Tolerance :   1.0000e-05
  Last Orbital Rotation      ...    2.7801e-06  Tolerance :   1.0000e-05

             **** THE GBW FILE WAS UPDATED (g8raf/frag_22_c00001.gbw) ****
             **** DENSITY FILE WAS UPDATED (g8raf/frag_22_c00001.scfp.tmp) ****
             **** ENERGY FILE WAS UPDATED (g8raf/frag_22_c00001.en.tmp) ****
----------------
ORBITAL ENERGIES
----------------

  NO   OCC          E(Eh)            E(eV) 
   0   2.0000     -14.335712      -390.0945 
   1   2.0000     -14.320535      -389.6816 
   2   2.0000     -10.236922      -278.5608 
   3   2.0000     -10.234619      -278.4982 
   4   2.0000     -10.152723      -276.2696 
   5   2.0000      -0.957306       -26.0496 
   6   2.0000      -0.884118       -24.0581 
   7   2.0000      -0.719372       -19.5751 
   8   2.0000      -0.660474       -17.9724 
   9   2.0000      -0.544352       -14.8126 
  10   2.0000      -0.516540       -14.0558 
  11   2.0000      -0.488633       -13.2964 
  12   2.0000      -0.432776       -11.7764 
  13   2.0000      -0.421477       -11.4690 
  14   2.0000      -0.392805       -10.6888 
  15   2.0000      -0.376493       -10.2449 
  16   2.0000      -0.299550        -8.1512 
  17   2.0000      -0.262721        -7.1490 
  18   2.0000      -0.196689        -5.3522 
  19   0.0000      -0.051553        -1.4028 
  20   0.0000       0.066290         1.8038 
  21   0.0000       0.079598         2.1660 
  22   0.0000       0.105812         2.8793 
  23   0.0000       0.111357         3.0302 
  24   0.0000       0.124108         3.3771 
  25   0.0000       0.149448         4.0667 
  26   0.0000       0.190136         5.1739 
  27   0.0000       0.239376         6.5137 
  28   0.0000       0.281498         7.6600 
  29   0.0000       0.356771         9.7082 
  30   0.0000       0.402350        10.9485 
  31   0.0000       0.455093        12.3837 
  32   0.0000       0.475525        12.9397 
  33   0.0000       0.486665        13.2428 
  34   0.0000       0.493841        13.4381 
  35   0.0000       0.514167        13.9912 
  36   0.0000       0.534830        14.5535 
  37   0.0000       0.548801        14.9336 
  38   0.0000       0.583646        15.8818 
  39   0.0000       0.594133        16.1672 
  40   0.0000       0.623084        16.9550 
  41   0.0000       0.634098        17.2547 
  42   0.0000       0.666852        18.1460 
  43   0.0000       0.702326        19.1113 
  44   0.0000       0.759177        20.6583 
  45   0.0000       0.785632        21.3781 
  46   0.0000       0.788297        21.4507 
  47   0.0000       0.829946        22.5840 
  48   0.0000       0.848119        23.0785 
  49   0.0000       0.883829        24.0502 
  50   0.0000       0.908308        24.7163 
  51   0.0000       0.922813        25.1110 
  52   0.0000       0.954553        25.9747 
  53   0.0000       0.988283        26.8925 
  54   0.0000       0.997913        27.1546 
  55   0.0000       1.040464        28.3125 
  56   0.0000       1.061054        28.8728 
  57   0.0000       1.127936        30.6927 
  58   0.0000       1.216438        33.1010 
  59   0.0000       1.221129        33.2286 
  60   0.0000       1.341089        36.4929 
  61   0.0000       1.372287        37.3418 
  62   0.0000       1.415825        38.5266 
  63   0.0000       1.459711        39.7208 
  64   0.0000       1.485901        40.4334 
  65   0.0000       1.493857        40.6499 
  66   0.0000       1.532618        41.7046 
  67   0.0000       1.548708        42.1425 
  68   0.0000       1.581838        43.0440 
  69   0.0000       1.613631        43.9091 
  70   0.0000       1.644881        44.7595 
  71   0.0000       1.678159        45.6650 
  72   0.0000       1.705231        46.4017 
  73   0.0000       1.749497        47.6062 
  74   0.0000       1.766036        48.0563 
  75   0.0000       1.775935        48.3256 
  76   0.0000       1.861804        50.6623 
  77   0.0000       1.888223        51.3812 
  78   0.0000       1.912727        52.0479 
  79   0.0000       1.940282        52.7977 
  80   0.0000       1.966719        53.5171 
  81   0.0000       2.035297        55.3832 
  82   0.0000       2.089222        56.8506 
  83   0.0000       2.127276        57.8861 
  84   0.0000       2.221664        60.4546 
  85   0.0000       2.258622        61.4602 
  86   0.0000       2.309923        62.8562 
  87   0.0000       2.332325        63.4658 
  88   0.0000       2.384650        64.8896 
  89   0.0000       2.428288        66.0771 
  90   0.0000       2.481604        67.5279 
  91   0.0000       2.546517        69.2942 
  92   0.0000       2.561727        69.7081 
  93   0.0000       2.621512        71.3350 
  94   0.0000       2.705277        73.6143 
  95   0.0000       2.798372        76.1476 
  96   0.0000       2.827838        76.9494 
  97   0.0000       2.891782        78.6894 
  98   0.0000       3.191061        86.8332 
  99   0.0000       3.253309        88.5270 
-------
TIMINGS
-------

Total SCF time: 0 days 0 hours 0 min 6 sec 

Total time                  ....       6.408 sec
Sum of individual times     ....       6.376 sec  ( 99.5%)

Fock matrix formation       ....       5.706 sec  ( 89.0%)
  Split-RI-J                ....       1.719 sec  ( 30.1% of F)
  Chain of spheres X        ....       3.532 sec  ( 61.9% of F)
  COS-X 1 center corr.      ....       0.000 sec  (  0.0% of F)
  XC integration            ....       0.432 sec  (  7.6% of F)
    Basis function eval.    ....       0.161 sec  ( 37.4% of XC)
    Density eval.           ....       0.067 sec  ( 15.6% of XC)
    XC-Functional eval.     ....       0.025 sec  (  5.9% of XC)
    XC-Potential eval.      ....       0.129 sec  ( 29.8% of XC)
Diagonalization             ....       0.013 sec  (  0.2%)
Density matrix formation    ....       0.019 sec  (  0.3%)
Population analysis         ....       0.000 sec  (  0.0%)
Initial guess               ....       0.162 sec  (  2.5%)
Orbital Transformation      ....       0.000 sec  (  0.0%)
Orbital Orthonormalization  ....       0.000 sec  (  0.0%)
DIIS solution               ....       0.004 sec  (  0.1%)
SOSCF solution              ....       0.046 sec  (  0.7%)
Grid generation             ....       0.427 sec  (  6.7%)


-------------------------------------------------------------------------------
                          DFT DISPERSION CORRECTION                            
                                                                               
                              DFTD3 V3.1  Rev 1                                
                          USING Becke-Johnson damping                          
-------------------------------------------------------------------------------
The B3LYP functional is recognized
Active option DFTDOPT                   ...         4   

molecular C6(AA) [au] = 1154.691211 


            DFT-D V3
 parameters
 s6 scaling factor         :     1.0000 
 a1 scaling factor         :     0.3981 
 s8 scaling factor         :     1.9889 
 a2 scaling factor         :     4.4211 
 ad hoc parameters k1-k3   :    16.0000     1.3333    -4.0000 

 Edisp/kcal,au: -8.469799596328  -0.013497483373 
 E6   /kcal   :  -4.086484685 
 E8   /kcal   :  -4.383314911 
 % E8         :  51.752286002 

-------------------------   ----------------
Dispersion correction           -0.013497483
-------------------------   ----------------


-------------------------   --------------------
FINAL SINGLE POINT ENERGY      -227.260407800282
-------------------------   --------------------



           ************************************************************
           *        Program running with 6 parallel MPI-processes     *
           *              working on a common directory               *
           ************************************************************
------------------------------------------------------------------------------
                         ORCA SCF GRADIENT CALCULATION
------------------------------------------------------------------------------

Gradient of the Kohn-Sham DFT energy:
Kohn-Sham wavefunction type      ... RKS
Hartree-Fock exchange scaling    ...    0.200
Number of operators              ...    1
Number of atoms                  ...   11
Basis set dimensions             ...  100
Integral neglect threshold       ... 2.5e-11
Integral primitive cutoff        ... 2.5e-12

Nuclear repulsion gradient       ... done
One Electron Gradient            ... done
Pre-screening matrix             ... done
RI-J gradient                    ... done
COSX-gradient                    ... done
Exchange-correlation gradient    ... done
Dispersion correction            ... done

------------------
CARTESIAN GRADIENT
------------------

   1   C   :   -0.017234670   -0.003145638    0.001164086
   2   C   :   -0.045776524    0.015194416   -0.002213027
   3   N   :    0.030335803    0.005249344    0.000929653
   4   N   :    0.019245014   -0.039593208    0.001745282
   5   C   :    0.013664553    0.008124123    0.000294073
   6   H   :   -0.001337372    0.004539200   -0.000137539
   7   H   :   -0.001653510   -0.006851065    0.000105722
   8   H   :    0.001400631    0.002454444    0.000225400
   9   H   :    0.003941195    0.007104340   -0.001247247
  10   H   :   -0.002844352    0.002825166    0.000126997
  11   H   :   -0.000141984    0.003842900   -0.000267991

Difference to translation invariance:
           :   -0.0004012173   -0.0002559780    0.0007254100

Norm of the cartesian gradient     ...    0.0772056252
RMS gradient                       ...    0.0134397743
MAX gradient                       ...    0.0457765242

-------
TIMINGS
-------

Total SCF gradient time            ...        1.323 sec

One electron gradient       ....       0.014 sec  (  1.1%)
Prescreening matrices       ....       0.034 sec  (  2.6%)
RI-J Coulomb gradient       ....       0.188 sec  ( 14.2%)
COSX gradient               ....       0.456 sec  ( 34.5%)
XC gradient                 ....       0.335 sec  ( 25.3%)
------------------------------------------------------------------------------
                         ORCA GEOMETRY RELAXATION STEP
------------------------------------------------------------------------------

Reading the OPT-File                    .... done
Getting information on internals        .... done
Copying old internal coords+grads       .... done
Making the new internal coordinates     .... (new redundants).... done
Validating the new internal coordinates .... (new redundants).... done
Calculating the B-matrix                .... done
Calculating the G,G- and P matrices     .... done
Transforming gradient to internals      .... done
Projecting the internal gradient        .... done
Number of atoms                         ....  11
Number of internal coordinates          ....  35
Current Energy                          ....  -227.260407800 Eh
Current gradient norm                   ....     0.077205625 Eh/bohr
Maximum allowed component of the step   ....  0.300
Current trust radius                    ....  0.300
Evaluating the initial hessian          ....  (Almloef) done
Projecting the Hessian                  .... done
Forming the augmented Hessian           .... done
Diagonalizing the augmented Hessian     .... done
Last element of RFO vector              ....  0.988883512
Lowest eigenvalues of augmented Hessian:
 -0.009211433  0.026931497  0.028066293  0.032861284  0.039445056
Length of the computed step             ....  0.150363816
The final length of the internal step   ....  0.150363816
Converting the step to cartesian space:
 Initial RMS(Int)=    0.0254161238
Transforming coordinates:
 Iter   0:  RMS(Cart)=    0.0562651572 RMS(Int)=    1.0612116743
 Iter   1:  RMS(Cart)=    0.0019004645 RMS(Int)=    0.0010871311
 Iter   2:  RMS(Cart)=    0.0000718710 RMS(Int)=    0.0000383556
 Iter   3:  RMS(Cart)=    0.0000045301 RMS(Int)=    0.0000027559
 Iter   4:  RMS(Cart)=    0.0000002332 RMS(Int)=    0.0000001275
 Iter   5:  RMS(Cart)=    0.0000000123 RMS(Int)=    0.0000000081
done
Storing new coordinates                 .... done

                                .--------------------.
          ----------------------|Geometry convergence|-------------------------
          Item                value                   Tolerance       Converged
          ---------------------------------------------------------------------
          RMS gradient        0.0117696417            0.0020000000      NO
          MAX gradient        0.0373950677            0.0030000000      NO
          RMS step            0.0254161238            0.0200000000      NO
          MAX step            0.0668645379            0.0300000000      NO
          ........................................................
          Max(Bonds)      0.0321      Max(Angles)    3.83
          Max(Dihed)        2.53      Max(Improp)    0.00
          ---------------------------------------------------------------------

The optimization has not yet converged - more geometry cycles are needed


    ---------------------------------------------------------------------------
                         Redundant Internal Coordinates
                            (Angstroem and degrees)

        Definition                    Value    dE/dq     Step     New-Value
    ----------------------------------------------------------------------------
     1. B(C   1,C   0)                1.3424 -0.019989  0.0140    1.3564   
     2. B(N   2,C   1)                1.3754 -0.030260  0.0267    1.4021   
     3. B(N   3,C   1)                1.3680 -0.037395  0.0321    1.4001   
     4. B(C   4,N   3)                1.2867  0.017908 -0.0115    1.2752   
     5. B(H   5,C   0)                1.0855 -0.004616  0.0065    1.0920   
     6. B(H   6,C   0)                1.0799 -0.006490  0.0090    1.0889   
     7. B(H   7,N   2)                1.0135 -0.001042  0.0013    1.0147   
     8. B(H   8,N   2)                1.0168 -0.003030  0.0037    1.0205   
     9. B(H   9,C   4)                1.1007 -0.002094  0.0031    1.1039   
    10. B(H  10,C   4)                1.1022  0.003099 -0.0046    1.0976   
    11. A(C   1,C   0,H   6)          124.28  0.002833   -0.46    123.81   
    12. A(C   1,C   0,H   5)          120.43 -0.000286    0.02    120.44   
    13. A(H   5,C   0,H   6)          115.29 -0.002549    0.45    115.73   
    14. A(N   2,C   1,N   3)          116.49  0.029332   -3.83    112.66   
    15. A(C   0,C   1,N   3)          125.84 -0.005803    0.79    126.63   
    16. A(C   0,C   1,N   2)          117.67 -0.023531    3.04    120.71   
    17. A(H   7,N   2,H   8)          112.18  0.005438   -0.50    111.68   
    18. A(C   1,N   2,H   8)          108.17 -0.011421    2.05    110.21   
    19. A(C   1,N   2,H   7)          112.84 -0.002140    0.57    113.40   
    20. A(C   1,N   3,C   4)          122.16 -0.007537    0.94    123.11   
    21. A(H   9,C   4,H  10)          115.30 -0.003975    0.71    116.00   
    22. A(N   3,C   4,H  10)          118.42  0.000837   -0.18    118.25   
    23. A(N   3,C   4,H   9)          126.28  0.003137   -0.53    125.75   
    24. D(N   2,C   1,C   0,H   5)      1.17  0.001044   -1.38     -0.21   
    25. D(N   3,C   1,C   0,H   5)   -178.89 -0.000471    0.70   -178.18   
    26. D(N   2,C   1,C   0,H   6)    179.78  0.000887   -1.19    178.58   
    27. D(N   3,C   1,C   0,H   6)     -0.28 -0.000628    0.89      0.61   
    28. D(H   7,N   2,C   1,N   3)   -142.94  0.002778   -2.53   -145.46   
    29. D(H   8,N   2,C   1,C   0)    161.72 -0.001539    0.62    162.34   
    30. D(H   7,N   2,C   1,C   0)     37.02  0.001390   -0.64     36.38   
    31. D(H   8,N   2,C   1,N   3)    -18.23 -0.000152   -1.27    -19.50   
    32. D(C   4,N   3,C   1,N   2)   -179.99 -0.001138    1.63   -178.36   
    33. D(C   4,N   3,C   1,C   0)      0.07  0.000385   -0.43     -0.37   
    34. D(H  10,C   4,N   3,C   1)    179.96 -0.000442    0.42    180.37   
    35. D(H   9,C   4,N   3,C   1)      0.06 -0.000283    0.27      0.32   
    ----------------------------------------------------------------------------

         *************************************************************
         *                GEOMETRY OPTIMIZATION CYCLE   2            *
         *************************************************************
---------------------------------
CARTESIAN COORDINATES (ANGSTROEM)
---------------------------------
  C      3.157105   -0.720143   -0.002503
  C      1.801152   -0.689251    0.015414
  N      1.057603   -1.877733   -0.007900
  N      0.991781    0.453232    0.016071
  C      1.460746    1.639032    0.005420
  H      3.688484   -1.673730   -0.031416
  H      3.783509    0.170525   -0.008714
  H      1.486758   -2.631808    0.518313
  H      0.100742   -1.700822    0.299711
  H      2.530928    1.909187   -0.010383
  H      0.752790    2.477712    0.013187

----------------------------
CARTESIAN COORDINATES (A.U.)
----------------------------
  NO LB      ZA    FRAG     MASS         X           Y           Z
   0 C     6.0000    0    12.011    5.966064   -1.360873   -0.004731
   1 C     6.0000    0    12.011    3.403684   -1.302496    0.029129
   2 N     7.0000    0    14.007    1.998580   -3.548402   -0.014929
   3 N     7.0000    0    14.007    1.874195    0.856484    0.030369
   4 C     6.0000    0    12.011    2.760411    3.097321    0.010243
   5 H     1.0000    0     1.008    6.970225   -3.162892   -0.059367
   6 H     1.0000    0     1.008    7.149797    0.322245   -0.016468
   7 H     1.0000    0     1.008    2.809565   -4.973396    0.979470
   8 H     1.0000    0     1.008    0.190375   -3.214088    0.566372
   9 H     1.0000    0     1.008    4.782761    3.607841   -0.019621
  10 H     1.0000    0     1.008    1.422567    4.682198    0.024920

--------------------------------
INTERNAL COORDINATES (ANGSTROEM)
--------------------------------
 C      0   0   0     0.000000000000     0.00000000     0.00000000
 C      1   0   0     1.356423127449     0.00000000     0.00000000
 N      2   1   0     1.402105047298   120.70386398     0.00000000
 N      2   1   3     1.400124759346   126.61678242   182.08684673
 C      4   2   1     1.275210621610   123.10544680   359.66576198
 H      1   2   3     1.092029719316   120.44202631   359.75711685
 H      1   2   3     1.088902987000   123.81474937   178.55577434
 H      3   2   1     1.014742802006   113.39059797    36.35517894
 H      3   2   1     1.020541496407   110.19812348   162.33939008
 H      5   4   2     1.103867222799   125.74849015     0.32218196
 H      5   4   2     1.097564602569   118.24753438   180.37328573

---------------------------
INTERNAL COORDINATES (A.U.)
---------------------------
 C      0   0   0     0.000000000000     0.00000000     0.00000000
 C      1   0   0     2.563268232595     0.00000000     0.00000000
 N      2   1   0     2.649594550383   120.70386398     0.00000000
 N      2   1   3     2.645852348486   126.61678242   182.08684673
 C      4   2   1     2.409798837910   123.10544680   359.66576198
 H      1   2   3     2.063637099610   120.44202631   359.75711685
 H      1   2   3     2.057728431838   123.81474937   178.55577434
 H      3   2   1     1.917585992159   113.39059797    36.35517894
 H      3   2   1     1.928543936512   110.19812348   162.33939008
 H      5   4   2     2.086006739303   125.74849015     0.32218196
 H      5   4   2     2.074096513141   118.24753438   180.37328573



           ************************************************************
           *        Program running with 6 parallel MPI-processes     *
           *              working on a common directory               *
           ************************************************************
 One Electron integrals                  ... done
 Pre-screening matrix                    ... done


           ************************************************************
           *        Program running with 6 parallel MPI-processes     *
           *              working on a common directory               *
           ************************************************************

Diagonalization of the overlap matrix:
Smallest eigenvalue                        ... 2.543e-03
Time for diagonalization                   ...    0.002 sec
Threshold for overlap eigenvalues          ... 1.000e-08
Number of eigenvalues below threshold      ... 0
Time for construction of square roots      ...    0.001 sec
Total time needed                          ...    0.003 sec

-------------------
DFT GRID GENERATION
-------------------

General Integration Accuracy     IntAcc      ...  4.340
Radial Grid Type                 RadialGrid  ... Gauss-Chebyshev
Angular Grid (max. acc.)         AngularGrid ... Lebedev-110
Angular grid pruning method      GridPruning ... 3 (G Style)
Weight generation scheme         WeightScheme... Becke
Basis function cutoff            BFCut       ...    1.0000e-11
Integration weight cutoff        WCut        ...    1.0000e-14
Grids for H and He will be reduced by one unit

# of grid points (after initial pruning)     ...  13136 (   0.0 sec)
# of grid points (after weights+screening)   ...  12469 (   0.0 sec)
nearest neighbour list constructed           ...    0.0 sec
Grid point re-assignment to atoms done       ...    0.0 sec
Grid point division into batches done        ...    0.0 sec
Reduced shell lists constructed in    0.0 sec

Total number of grid points                  ...    12469
Total number of batches                      ...      202
Average number of points per batch           ...       61
Average number of grid points per atom       ...     1134
Average number of shells per batch           ...    46.29 (96.43%)
Average number of basis functions per batch  ...    96.11 (96.11%)
Average number of large shells per batch     ...    41.74 (90.19%)
Average number of large basis fcns per batch ...    87.51 (91.05%)
Maximum spatial batch extension              ...   3.19,  4.07, 22.20 au
Average spatial batch extension              ...   0.28,  0.30,  0.58 au

Time for grid setup =    0.033 sec

--------------------
COSX GRID GENERATION
--------------------

General Integration Accuracy     IntAcc      ...  3.340
Radial Grid Type                 RadialGrid  ... Gauss-Chebyshev
Angular Grid (max. acc.)         AngularGrid ... Lebedev-50
Angular grid pruning method      GridPruning ... 3 (G Style)
Weight generation scheme         WeightScheme... Becke
Basis function cutoff            BFCut       ...    1.0000e-11
Integration weight cutoff        WCut        ...    1.0000e-14
Grids for H and He will be reduced by one unit

# of grid points (after initial pruning)     ...   4792 (   0.0 sec)
# of grid points (after weights+screening)   ...   4567 (   0.0 sec)
nearest neighbour list constructed           ...    0.0 sec
Grid point re-assignment to atoms done       ...    0.0 sec
Grid point division into batches done        ...    0.0 sec
Reduced shell lists constructed in    0.0 sec

Total number of grid points                  ...     4567
Total number of batches                      ...       76
Average number of points per batch           ...       60
Average number of grid points per atom       ...      415
Average number of shells per batch           ...    44.29 (92.26%)
Average number of basis functions per batch  ...    92.00 (92.00%)
Average number of large shells per batch     ...    40.64 (91.77%)
Average number of large basis fcns per batch ...    84.79 (92.16%)
Maximum spatial batch extension              ...   3.04,  3.49, 18.55 au
Average spatial batch extension              ...   0.33,  0.35,  0.93 au

Overlap Fitting                  UseSFitting ... on
Constructing numerical overlap ... done (      0.0 sec)
Inverting numerical overlap    ... done (      0.0 sec)
Obtaining analytic overlap     ... done (      0.0 sec)
Final contraction and storage  ... done (      0.0 sec)


General Integration Accuracy     IntAcc      ...  3.670
Radial Grid Type                 RadialGrid  ... Gauss-Chebyshev
Angular Grid (max. acc.)         AngularGrid ... Lebedev-50
Angular grid pruning method      GridPruning ... 3 (G Style)
Weight generation scheme         WeightScheme... Becke
Basis function cutoff            BFCut       ...    1.0000e-11
Integration weight cutoff        WCut        ...    1.0000e-14
Grids for H and He will be reduced by one unit

# of grid points (after initial pruning)     ...   6146 (   0.0 sec)
# of grid points (after weights+screening)   ...   5859 (   0.0 sec)
nearest neighbour list constructed           ...    0.0 sec
Grid point re-assignment to atoms done       ...    0.0 sec
Grid point division into batches done        ...    0.0 sec
Reduced shell lists constructed in    0.0 sec

Total number of grid points                  ...     5859
Total number of batches                      ...       97
Average number of points per batch           ...       60
Average number of grid points per atom       ...      533
Average number of shells per batch           ...    45.11 (93.98%)
Average number of basis functions per batch  ...    93.78 (93.78%)
Average number of large shells per batch     ...    41.00 (90.89%)
Average number of large basis fcns per batch ...    85.44 (91.11%)
Maximum spatial batch extension              ...   3.39,  3.49, 26.68 au
Average spatial batch extension              ...   0.35,  0.35,  0.87 au

Overlap Fitting                  UseSFitting ... on
Constructing numerical overlap ... done (      0.0 sec)
Inverting numerical overlap    ... done (      0.0 sec)
Obtaining analytic overlap     ... done (      0.0 sec)
Final contraction and storage  ... done (      0.0 sec)


General Integration Accuracy     IntAcc      ...  4.010
Radial Grid Type                 RadialGrid  ... Gauss-Chebyshev
Angular Grid (max. acc.)         AngularGrid ... Lebedev-110
Angular grid pruning method      GridPruning ... 3 (G Style)
Weight generation scheme         WeightScheme... Becke
Basis function cutoff            BFCut       ...    1.0000e-11
Integration weight cutoff        WCut        ...    1.0000e-14
Grids for H and He will be reduced by one unit

# of grid points (after initial pruning)     ...  11348 (   0.0 sec)
# of grid points (after weights+screening)   ...  10791 (   0.0 sec)
nearest neighbour list constructed           ...    0.0 sec
Grid point re-assignment to atoms done       ...    0.0 sec
Grid point division into batches done        ...    0.0 sec
Reduced shell lists constructed in    0.0 sec

Total number of grid points                  ...    10791
Total number of batches                      ...      174
Average number of points per batch           ...       62
Average number of grid points per atom       ...      981
Average number of shells per batch           ...    46.10 (96.04%)
Average number of basis functions per batch  ...    95.77 (95.77%)
Average number of large shells per batch     ...    42.13 (91.40%)
Average number of large basis fcns per batch ...    88.47 (92.38%)
Maximum spatial batch extension              ...   3.36,  4.00, 19.71 au
Average spatial batch extension              ...   0.31,  0.32,  0.57 au

Overlap Fitting                  UseSFitting ... on
Constructing numerical overlap ... done (      0.0 sec)
Inverting numerical overlap    ... done (      0.0 sec)
Obtaining analytic overlap     ... done (      0.0 sec)
Final contraction and storage  ... done (      0.0 sec)

Time for X-Grid setup             =    0.143 sec
--------------
SCF ITERATIONS
--------------
ITER       Energy         Delta-E        Max-DP      RMS-DP      [F,P]     Damp
               ***  Starting incremental Fock matrix formation  ***
  0   -227.2502674692   0.000000000000 0.00589086  0.00028114  0.0210572 0.7000
                      *** Initiating the SOSCF procedure ***
                      *** Re-Reading the Fockian *** 
                      *** Removing any level shift *** 
ITER      Energy       Delta-E        Grad      Rot      Max-DP    RMS-DP
  1   -227.25103516  -0.0007676914  0.001563  0.001563  0.017783  0.000839
               *** Restarting incremental Fock matrix formation ***
  2   -227.25301313  -0.0019779690  0.001507  0.005051  0.005906  0.000261
  3   -227.25300113   0.0000120003  0.002716  0.003336  0.004089  0.000130
  4   -227.25308524  -0.0000841136  0.000428  0.001423  0.001263  0.000067
  5   -227.25308490   0.0000003474  0.000416  0.000567  0.000804  0.000031
  6   -227.25308986  -0.0000049650  0.000041  0.000134  0.000202  0.000008
  7   -227.25308986  -0.0000000005  0.000045  0.000142  0.000117  0.000004
  8   -227.25308990  -0.0000000422  0.000024  0.000100  0.000080  0.000003
  9   -227.25308992  -0.0000000190  0.000013  0.000026  0.000032  0.000001
                  ***Gradient check signals convergence***
              ***Rediagonalizing the Fockian in SOSCF/NRSCF***

               *****************************************************
               *                     SUCCESS                       *
               *           SCF CONVERGED AFTER  10 CYCLES          *
               *****************************************************

Setting up the final grid:

General Integration Accuracy     IntAcc      ...  4.670
Radial Grid Type                 RadialGrid  ... Gauss-Chebyshev
Angular Grid (max. acc.)         AngularGrid ... Lebedev-302
Angular grid pruning method      GridPruning ... 3 (G Style)
Weight generation scheme         WeightScheme... Becke
Basis function cutoff            BFCut       ...    1.0000e-11
Integration weight cutoff        WCut        ...    1.0000e-14
Grids for H and He will be reduced by one unit

# of grid points (after initial pruning)     ...  51424 (   0.0 sec)
# of grid points (after weights+screening)   ...  48307 (   0.0 sec)
nearest neighbour list constructed           ...    0.0 sec
Grid point re-assignment to atoms done       ...    0.0 sec
Grid point division into batches done        ...    0.2 sec
Reduced shell lists constructed in    0.2 sec

Total number of grid points                  ...    48307
Total number of batches                      ...      760
Average number of points per batch           ...       63
Average number of grid points per atom       ...     4392
Average number of shells per batch           ...    44.74 (93.21%)
Average number of basis functions per batch  ...    92.54 (92.54%)
Average number of large shells per batch     ...    38.38 (85.79%)
Average number of large basis fcns per batch ...    79.84 (86.27%)
Maximum spatial batch extension              ...   9.55, 10.73, 23.20 au
Average spatial batch extension              ...   0.24,  0.26,  0.35 au

Final grid set up in    0.2 sec
Final integration                            ... done (   0.1 sec)
Change in XC energy                          ...    -0.000121996
Integrated number of electrons               ...    37.999965909
Previous integrated no of electrons          ...    37.999033636
Old exchange energy                            =     -6.169264824 Eh
New exchange energy                            =     -6.168845094 Eh
Exchange energy change after final integration =      0.000419730 Eh
Total energy after final integration           =   -227.252792188 Eh
Final COS-X integration done in                =     0.436 sec
Total Energy       :         -227.25279219 Eh           -6183.86286 eV
  Last Energy change         ...    4.7189e-10  Tolerance :   1.0000e-08
  Last MAX-Density change    ...    5.7623e-15  Tolerance :   1.0000e-07
             **** THE GBW FILE WAS UPDATED (g8raf/frag_22_c00001.gbw) ****
             **** DENSITY FILE WAS UPDATED (g8raf/frag_22_c00001.scfp.tmp) ****
             **** ENERGY FILE WAS UPDATED (g8raf/frag_22_c00001.en.tmp) ****
Total SCF time: 0 days 0 hours 0 min 5 sec 


-------------------------------------------------------------------------------
                          DFT DISPERSION CORRECTION                            
                                                                               
                              DFTD3 V3.1  Rev 1                                
                          USING Becke-Johnson damping                          
-------------------------------------------------------------------------------
-------------------------   ----------------
Dispersion correction           -0.013339647
-------------------------   ----------------


-------------------------   --------------------
FINAL SINGLE POINT ENERGY      -227.266131834984
-------------------------   --------------------



           ************************************************************
           *        Program running with 6 parallel MPI-processes     *
           *              working on a common directory               *
           ************************************************************
------------------------------------------------------------------------------
                         ORCA SCF GRADIENT CALCULATION
------------------------------------------------------------------------------

Gradient of the Kohn-Sham DFT energy:
Kohn-Sham wavefunction type      ... RKS
Hartree-Fock exchange scaling    ...    0.200
Number of operators              ...    1
Number of atoms                  ...   11
Basis set dimensions             ...  100
Integral neglect threshold       ... 2.5e-11
Integral primitive cutoff        ... 2.5e-12

Nuclear repulsion gradient       ... done
One Electron Gradient            ... done
Pre-screening matrix             ... done
RI-J gradient                    ... done
COSX-gradient                    ... done
Exchange-correlation gradient    ... done
Dispersion correction            ... done

------------------
CARTESIAN GRADIENT
------------------

   1   C   :    0.000666259   -0.001208931   -0.000021218
   2   C   :   -0.024075212    0.012015988    0.000420023
   3   N   :    0.009636206   -0.007644802   -0.000571992
   4   N   :    0.010216251   -0.010505633    0.000667301
   5   C   :    0.001545257    0.002915103   -0.000183115
   6   H   :    0.001166765    0.000580625   -0.000477816
   7   H   :    0.002556921   -0.002059906    0.000023804
   8   H   :   -0.000019899    0.001565209    0.000655340
   9   H   :   -0.001656368    0.002186100    0.000070037
  10   H   :   -0.001529142    0.001565342    0.000056581
  11   H   :    0.000902719    0.000367636   -0.000050203

Difference to translation invariance:
           :   -0.0005902412   -0.0002232679    0.0005887430

Norm of the cartesian gradient     ...    0.0336552120
RMS gradient                       ...    0.0058586204
MAX gradient                       ...    0.0240752119

-------
TIMINGS
-------

Total SCF gradient time            ...        1.377 sec

One electron gradient       ....       0.015 sec  (  1.1%)
Prescreening matrices       ....       0.035 sec  (  2.5%)
RI-J Coulomb gradient       ....       0.185 sec  ( 13.4%)
COSX gradient               ....       0.476 sec  ( 34.6%)
XC gradient                 ....       0.337 sec  ( 24.5%)
------------------------------------------------------------------------------
                         ORCA GEOMETRY RELAXATION STEP
------------------------------------------------------------------------------

Reading the OPT-File                    .... done
Getting information on internals        .... done
Copying old internal coords+grads       .... done
Making the new internal coordinates     .... (new redundants).... done
Validating the new internal coordinates .... (new redundants).... done
Calculating the B-matrix                .... done
Calculating the G,G- and P matrices     .... done
Transforming gradient to internals      .... done
Projecting the internal gradient        .... done
Number of atoms                         ....  11
Number of internal coordinates          ....  35
Current Energy                          ....  -227.266131835 Eh
Current gradient norm                   ....     0.033655212 Eh/bohr
Maximum allowed component of the step   ....  0.300
Current trust radius                    ....  0.300
Updating the Hessian (BFGS)             .... done
Forming the augmented Hessian           .... done
Diagonalizing the augmented Hessian     .... done
Last element of RFO vector              ....  0.994591097
Lowest eigenvalues of augmented Hessian:
 -0.001645998  0.026913896  0.027833782  0.032901201  0.039405558
Length of the computed step             ....  0.104432809
The final length of the internal step   ....  0.104432809
Converting the step to cartesian space:
 Initial RMS(Int)=    0.0176523665
Transforming coordinates:
 Iter   0:  RMS(Cart)=    0.0264584947 RMS(Int)=    0.0176564332
 Iter   1:  RMS(Cart)=    0.0005754012 RMS(Int)=    0.0005020786
 Iter   2:  RMS(Cart)=    0.0000252267 RMS(Int)=    0.0000218911
 Iter   3:  RMS(Cart)=    0.0000012238 RMS(Int)=    0.0000011944
 Iter   4:  RMS(Cart)=    0.0000000695 RMS(Int)=    0.0000000627
done
Storing new coordinates                 .... done

                                .--------------------.
          ----------------------|Geometry convergence|-------------------------
          Item                value                   Tolerance       Converged
          ---------------------------------------------------------------------
          Energy change      -0.0057240347            0.0001000000      NO
          RMS gradient        0.0036870263            0.0020000000      NO
          MAX gradient        0.0111721094            0.0030000000      NO
          RMS step            0.0176523665            0.0200000000      YES
          MAX step            0.0446191753            0.0300000000      NO
          ........................................................
          Max(Bonds)      0.0157      Max(Angles)    2.31
          Max(Dihed)        2.56      Max(Improp)    0.00
          ---------------------------------------------------------------------

The optimization has not yet converged - more geometry cycles are needed


    ---------------------------------------------------------------------------
                         Redundant Internal Coordinates
                            (Angstroem and degrees)

        Definition                    Value    dE/dq     Step     New-Value
    ----------------------------------------------------------------------------
     1. B(C   1,C   0)                1.3564  0.004643 -0.0031    1.3534   
     2. B(N   2,C   1)                1.4021 -0.001017  0.0037    1.4058   
     3. B(N   3,C   1)                1.4001 -0.011067  0.0157    1.4158   
     4. B(C   4,N   3)                1.2752  0.004932 -0.0053    1.2699   
     5. B(H   5,C   0)                1.0920  0.000069  0.0004    1.0925   
     6. B(H   6,C   0)                1.0889 -0.000144  0.0011    1.0900   
     7. B(H   7,N   2)                1.0147 -0.000900  0.0016    1.0163   
     8. B(H   8,N   2)                1.0205  0.001830 -0.0027    1.0178   
     9. B(H   9,C   4)                1.1039 -0.001066  0.0024    1.1063   
    10. B(H  10,C   4)                1.0976 -0.000307  0.0002    1.0978   
    11. A(C   1,C   0,H   6)          123.81  0.003552   -0.82    123.00   
    12. A(C   1,C   0,H   5)          120.44 -0.000342    0.03    120.47   
    13. A(H   5,C   0,H   6)          115.73 -0.003216    0.81    116.54   
    14. A(N   2,C   1,N   3)          112.65  0.011172   -2.31    110.34   
    15. A(C   0,C   1,N   3)          126.62 -0.000497    0.18    126.80   
    16. A(C   0,C   1,N   2)          120.70 -0.010670    2.12    122.83   
    17. A(H   7,N   2,H   8)          111.66  0.001474   -0.20    111.46   
    18. A(C   1,N   2,H   8)          110.20 -0.002454    0.81    111.00   
    19. A(C   1,N   2,H   7)          113.39 -0.001229    0.41    113.80   
    20. A(C   1,N   3,C   4)          123.11  0.004146   -0.61    122.49   
    21. A(H   9,C   4,H  10)          116.00 -0.001989    0.54    116.54   
    22. A(N   3,C   4,H  10)          118.25 -0.000023   -0.04    118.20   
    23. A(N   3,C   4,H   9)          125.75  0.002011   -0.50    125.25   
    24. D(N   2,C   1,C   0,H   5)     -0.24  0.000662   -1.15     -1.39   
    25. D(N   3,C   1,C   0,H   5)   -178.16  0.000270   -0.59   -178.75   
    26. D(N   2,C   1,C   0,H   6)    178.56  0.000303   -0.48    178.08   
    27. D(N   3,C   1,C   0,H   6)      0.64 -0.000089    0.08      0.73   
    28. D(H   7,N   2,C   1,N   3)   -145.46  0.001347   -2.56   -148.02   
    29. D(H   8,N   2,C   1,C   0)    162.34  0.000218   -1.43    160.91   
    30. D(H   7,N   2,C   1,C   0)     36.36  0.001166   -2.08     34.28   
    31. D(H   8,N   2,C   1,N   3)    -19.48  0.000400   -1.91    -21.38   
    32. D(C   4,N   3,C   1,N   2)   -178.39 -0.000180    0.73   -177.66   
    33. D(C   4,N   3,C   1,C   0)     -0.33 -0.000188    0.23     -0.11   
    34. D(H  10,C   4,N   3,C   1)   -179.63  0.000052   -0.06   -179.68   
    35. D(H   9,C   4,N   3,C   1)      0.32 -0.000221    0.32      0.65   
    ----------------------------------------------------------------------------

         *************************************************************
         *                GEOMETRY OPTIMIZATION CYCLE   3            *
         *************************************************************
---------------------------------
CARTESIAN COORDINATES (ANGSTROEM)
---------------------------------
  C      3.173885   -0.716387    0.000240
  C      1.820847   -0.696073    0.021998
  N      1.040619   -1.865052   -0.007729
  N      0.989871    0.450235    0.022938
  C      1.456575    1.631143    0.003947
  H      3.713360   -1.666175   -0.018976
  H      3.781026    0.188791   -0.007712
  H      1.460454   -2.650655    0.481641
  H      0.096150   -1.681621    0.324456
  H      2.531115    1.892665   -0.025091
  H      0.747698    2.469329    0.011486

----------------------------
CARTESIAN COORDINATES (A.U.)
----------------------------
  NO LB      ZA    FRAG     MASS         X           Y           Z
   0 C     6.0000    0    12.011    5.997774   -1.353774    0.000453
   1 C     6.0000    0    12.011    3.440903   -1.315387    0.041571
   2 N     7.0000    0    14.007    1.966484   -3.524437   -0.014605
   3 N     7.0000    0    14.007    1.870586    0.850820    0.043347
   4 C     6.0000    0    12.011    2.752528    3.082413    0.007459
   5 H     1.0000    0     1.008    7.017233   -3.148615   -0.035859
   6 H     1.0000    0     1.008    7.145104    0.356763   -0.014573
   7 H     1.0000    0     1.008    2.759859   -5.009013    0.910170
   8 H     1.0000    0     1.008    0.181697   -3.177802    0.613134
   9 H     1.0000    0     1.008    4.783114    3.576618   -0.047416
  10 H     1.0000    0     1.008    1.412944    4.666355    0.021706

--------------------------------
INTERNAL COORDINATES (ANGSTROEM)
--------------------------------
 C      0   0   0     0.000000000000     0.00000000     0.00000000
[...]
Average spatial batch extension              ...   0.33,  0.33,  0.43 au

Time for grid setup =    0.029 sec

--------------------
COSX GRID GENERATION
--------------------

General Integration Accuracy     IntAcc      ...  3.340
Radial Grid Type                 RadialGrid  ... Gauss-Chebyshev
Angular Grid (max. acc.)         AngularGrid ... Lebedev-50
Angular grid pruning method      GridPruning ... 3 (G Style)
Weight generation scheme         WeightScheme... Becke
Basis function cutoff            BFCut       ...    1.0000e-11
Integration weight cutoff        WCut        ...    1.0000e-14
Grids for H and He will be reduced by one unit

# of grid points (after initial pruning)     ...   4792 (   0.0 sec)
# of grid points (after weights+screening)   ...   4575 (   0.0 sec)
nearest neighbour list constructed           ...    0.0 sec
Grid point re-assignment to atoms done       ...    0.0 sec
Grid point division into batches done        ...    0.0 sec
Reduced shell lists constructed in    0.0 sec

Total number of grid points                  ...     4575
Total number of batches                      ...       76
Average number of points per batch           ...       60
Average number of grid points per atom       ...      416
Average number of shells per batch           ...    44.36 (92.41%)
Average number of basis functions per batch  ...    92.21 (92.21%)
Average number of large shells per batch     ...    40.93 (92.27%)
Average number of large basis fcns per batch ...    85.50 (92.72%)
Maximum spatial batch extension              ...   2.85,  3.43,  6.45 au
Average spatial batch extension              ...   0.33,  0.36,  0.51 au

Overlap Fitting                  UseSFitting ... on
Constructing numerical overlap ... done (      0.0 sec)
Inverting numerical overlap    ... done (      0.0 sec)
Obtaining analytic overlap     ... done (      0.0 sec)
Final contraction and storage  ... done (      0.0 sec)


General Integration Accuracy     IntAcc      ...  3.670
Radial Grid Type                 RadialGrid  ... Gauss-Chebyshev
Angular Grid (max. acc.)         AngularGrid ... Lebedev-50
Angular grid pruning method      GridPruning ... 3 (G Style)
Weight generation scheme         WeightScheme... Becke
Basis function cutoff            BFCut       ...    1.0000e-11
Integration weight cutoff        WCut        ...    1.0000e-14
Grids for H and He will be reduced by one unit

# of grid points (after initial pruning)     ...   6146 (   0.0 sec)
# of grid points (after weights+screening)   ...   5855 (   0.0 sec)
nearest neighbour list constructed           ...    0.0 sec
Grid point re-assignment to atoms done       ...    0.0 sec
Grid point division into batches done        ...    0.0 sec
Reduced shell lists constructed in    0.0 sec

Total number of grid points                  ...     5855
Total number of batches                      ...       95
Average number of points per batch           ...       61
Average number of grid points per atom       ...      532
Average number of shells per batch           ...    44.94 (93.63%)
Average number of basis functions per batch  ...    93.41 (93.41%)
Average number of large shells per batch     ...    40.94 (91.10%)
Average number of large basis fcns per batch ...    85.29 (91.31%)
Maximum spatial batch extension              ...   3.24,  3.40,  7.94 au
Average spatial batch extension              ...   0.33,  0.34,  0.46 au

Overlap Fitting                  UseSFitting ... on
Constructing numerical overlap ... done (      0.0 sec)
Inverting numerical overlap    ... done (      0.0 sec)
Obtaining analytic overlap     ... done (      0.0 sec)
Final contraction and storage  ... done (      0.0 sec)


General Integration Accuracy     IntAcc      ...  4.010
Radial Grid Type                 RadialGrid  ... Gauss-Chebyshev
Angular Grid (max. acc.)         AngularGrid ... Lebedev-110
Angular grid pruning method      GridPruning ... 3 (G Style)
Weight generation scheme         WeightScheme... Becke
Basis function cutoff            BFCut       ...    1.0000e-11
Integration weight cutoff        WCut        ...    1.0000e-14
Grids for H and He will be reduced by one unit

# of grid points (after initial pruning)     ...  11348 (   0.0 sec)
# of grid points (after weights+screening)   ...  10800 (   0.0 sec)
nearest neighbour list constructed           ...    0.0 sec
Grid point re-assignment to atoms done       ...    0.0 sec
Grid point division into batches done        ...    0.0 sec
Reduced shell lists constructed in    0.0 sec

Total number of grid points                  ...    10800
Total number of batches                      ...      173
Average number of points per batch           ...       62
Average number of grid points per atom       ...      982
Average number of shells per batch           ...    45.57 (94.93%)
Average number of basis functions per batch  ...    94.57 (94.57%)
Average number of large shells per batch     ...    40.80 (89.54%)
Average number of large basis fcns per batch ...    85.07 (89.95%)
Maximum spatial batch extension              ...   8.23,  7.89, 14.67 au
Average spatial batch extension              ...   0.32,  0.35,  0.44 au

Overlap Fitting                  UseSFitting ... on
Constructing numerical overlap ... done (      0.0 sec)
Inverting numerical overlap    ... done (      0.0 sec)
Obtaining analytic overlap     ... done (      0.0 sec)
Final contraction and storage  ... done (      0.0 sec)

Time for X-Grid setup             =    0.123 sec
--------------
SCF ITERATIONS
--------------
ITER       Energy         Delta-E        Max-DP      RMS-DP      [F,P]     Damp
               ***  Starting incremental Fock matrix formation  ***
                      *** Initiating the SOSCF procedure ***
                      *** Re-Reading the Fockian *** 
                      *** Removing any level shift *** 
ITER      Energy       Delta-E        Grad      Rot      Max-DP    RMS-DP
  0   -227.25874024 -227.2587402435  0.000366  0.000366  0.000924  0.000041
               *** Restarting incremental Fock matrix formation ***
  1   -227.25874791  -0.0000076710  0.000228  0.000966  0.000533  0.000025
  2   -227.25874915  -0.0000012375  0.000044  0.000301  0.000193  0.000009
  3   -227.25874913   0.0000000264  0.000057  0.000116  0.000155  0.000004
  4   -227.25874922  -0.0000000910  0.000009  0.000020  0.000026  0.000001
  5   -227.25874922  -0.0000000010  0.000004  0.000006  0.000018  0.000000
                  ***Gradient check signals convergence***
              ***Rediagonalizing the Fockian in SOSCF/NRSCF***

               *****************************************************
               *                     SUCCESS                       *
               *           SCF CONVERGED AFTER   6 CYCLES          *
               *****************************************************

Setting up the final grid:

General Integration Accuracy     IntAcc      ...  4.670
Radial Grid Type                 RadialGrid  ... Gauss-Chebyshev
Angular Grid (max. acc.)         AngularGrid ... Lebedev-302
Angular grid pruning method      GridPruning ... 3 (G Style)
Weight generation scheme         WeightScheme... Becke
Basis function cutoff            BFCut       ...    1.0000e-11
Integration weight cutoff        WCut        ...    1.0000e-14
Grids for H and He will be reduced by one unit

# of grid points (after initial pruning)     ...  51424 (   0.0 sec)
# of grid points (after weights+screening)   ...  48373 (   0.0 sec)
nearest neighbour list constructed           ...    0.0 sec
Grid point re-assignment to atoms done       ...    0.0 sec
Grid point division into batches done        ...    0.1 sec
Reduced shell lists constructed in    0.2 sec

Total number of grid points                  ...    48373
Total number of batches                      ...      761
Average number of points per batch           ...       63
Average number of grid points per atom       ...     4398
Average number of shells per batch           ...    45.46 (94.71%)
Average number of basis functions per batch  ...    94.13 (94.13%)
Average number of large shells per batch     ...    39.09 (85.99%)
Average number of large basis fcns per batch ...    81.33 (86.40%)
Maximum spatial batch extension              ...  13.62,  7.35, 11.61 au
Average spatial batch extension              ...   0.23,  0.23,  0.26 au

Final grid set up in    0.2 sec
Final integration                            ... done (   0.1 sec)
Change in XC energy                          ...    -0.000101321
Integrated number of electrons               ...    38.000014780
Previous integrated no of electrons          ...    37.998652107
Old exchange energy                            =     -6.169432225 Eh
New exchange energy                            =     -6.169088279 Eh
Exchange energy change after final integration =      0.000343946 Eh
Total energy after final integration           =   -227.258506593 Eh
Final COS-X integration done in                =     0.379 sec

----------------
TOTAL SCF ENERGY
----------------

Total Energy       :         -227.25850659 Eh           -6184.01835 eV

Components:
Nuclear Repulsion  :          164.56206211 Eh            4477.96137 eV
Electronic Energy  :         -391.82056870 Eh          -10661.97972 eV
One Electron Energy:         -632.12921425 Eh          -17201.11041 eV
Two Electron Energy:          240.30864555 Eh            6539.13069 eV

Virial components:
Potential Energy   :         -453.02587894 Eh          -12327.46088 eV
Kinetic Energy     :          225.76737235 Eh            6143.44253 eV
Virial Ratio       :            2.00660474


DFT components:
N(Alpha)           :       19.000007389881 electrons
N(Beta)            :       19.000007389881 electrons
N(Total)           :       38.000014779762 electrons
E(X)               :      -24.509400371435 Eh       
E(C)               :       -1.489526395675 Eh       
E(XC)              :      -25.998926767111 Eh       

---------------
SCF CONVERGENCE
---------------

  Last Energy change         ...   -3.0806e-10  Tolerance :   1.0000e-08
  Last MAX-Density change    ...    1.7766e-14  Tolerance :   1.0000e-07
  Last RMS-Density change    ...    2.4176e-16  Tolerance :   5.0000e-09
  Last Orbital Gradient      ...    1.7932e-06  Tolerance :   1.0000e-05
  Last Orbital Rotation      ...    3.8246e-06  Tolerance :   1.0000e-05

             **** THE GBW FILE WAS UPDATED (g8raf/frag_22_c00001.gbw) ****
             **** DENSITY FILE WAS UPDATED (g8raf/frag_22_c00001.scfp.tmp) ****
             **** ENERGY FILE WAS UPDATED (g8raf/frag_22_c00001.en.tmp) ****
----------------
ORBITAL ENERGIES
----------------

  NO   OCC          E(Eh)            E(eV) 
   0   2.0000     -14.336865      -390.1259 
   1   2.0000     -14.328432      -389.8965 
   2   2.0000     -10.241033      -278.6727 
   3   2.0000     -10.234923      -278.5064 
   4   2.0000     -10.155612      -276.3483 
   5   2.0000      -0.952492       -25.9186 
   6   2.0000      -0.880577       -23.9617 
   7   2.0000      -0.722953       -19.6725 
   8   2.0000      -0.645001       -17.5514 
   9   2.0000      -0.545073       -14.8322 
  10   2.0000      -0.511220       -13.9110 
  11   2.0000      -0.484744       -13.1905 
  12   2.0000      -0.446609       -12.1528 
  13   2.0000      -0.423397       -11.5212 
  14   2.0000      -0.387524       -10.5451 
  15   2.0000      -0.352365        -9.5884 
  16   2.0000      -0.313708        -8.5364 
  17   2.0000      -0.264230        -7.1901 
  18   2.0000      -0.201481        -5.4826 
  19   0.0000      -0.028108        -0.7649 
  20   0.0000       0.058405         1.5893 
  21   0.0000       0.076530         2.0825 
  22   0.0000       0.089906         2.4465 
  23   0.0000       0.106511         2.8983 
  24   0.0000       0.129211         3.5160 
  25   0.0000       0.140389         3.8202 
  26   0.0000       0.156124         4.2483 
  27   0.0000       0.231026         6.2865 
  28   0.0000       0.271859         7.3977 
  29   0.0000       0.321100         8.7376 
  30   0.0000       0.377090        10.2611 
  31   0.0000       0.449646        12.2355 
  32   0.0000       0.491984        13.3876 
  33   0.0000       0.498974        13.5778 
  34   0.0000       0.512294        13.9402 
  35   0.0000       0.514872        14.0104 
  36   0.0000       0.526535        14.3277 
  37   0.0000       0.558208        15.1896 
  38   0.0000       0.586256        15.9528 
  39   0.0000       0.600467        16.3395 
  40   0.0000       0.613540        16.6953 
  41   0.0000       0.641296        17.4506 
  42   0.0000       0.666660        18.1408 
  43   0.0000       0.693625        18.8745 
  44   0.0000       0.716432        19.4951 
  45   0.0000       0.764066        20.7913 
  46   0.0000       0.779360        21.2075 
  47   0.0000       0.815484        22.1905 
  48   0.0000       0.831687        22.6314 
  49   0.0000       0.860951        23.4277 
  50   0.0000       0.889406        24.2020 
  51   0.0000       0.916403        24.9366 
  52   0.0000       0.946477        25.7549 
  53   0.0000       0.989770        26.9330 
  54   0.0000       1.028744        27.9936 
  55   0.0000       1.053812        28.6757 
  56   0.0000       1.083539        29.4846 
  57   0.0000       1.113181        30.2912 
  58   0.0000       1.217069        33.1181 
  59   0.0000       1.282083        34.8873 
  60   0.0000       1.327570        36.1250 
  61   0.0000       1.371143        37.3107 
  62   0.0000       1.398996        38.0686 
  63   0.0000       1.442720        39.2584 
  64   0.0000       1.468444        39.9584 
  65   0.0000       1.487173        40.4680 
  66   0.0000       1.516884        41.2765 
  67   0.0000       1.565493        42.5992 
  68   0.0000       1.585235        43.1364 
  69   0.0000       1.603589        43.6359 
  70   0.0000       1.629816        44.3495 
  71   0.0000       1.662273        45.2327 
  72   0.0000       1.704616        46.3849 
  73   0.0000       1.716868        46.7184 
  74   0.0000       1.743322        47.4382 
  75   0.0000       1.794535        48.8318 
  76   0.0000       1.860596        50.6294 
  77   0.0000       1.891839        51.4796 
  78   0.0000       1.911642        52.0184 
  79   0.0000       1.943247        52.8784 
  80   0.0000       1.957113        53.2558 
  81   0.0000       2.003336        54.5135 
  82   0.0000       2.079356        56.5822 
  83   0.0000       2.128176        57.9106 
  84   0.0000       2.191661        59.6381 
  85   0.0000       2.250656        61.2435 
  86   0.0000       2.266410        61.6722 
  87   0.0000       2.309516        62.8451 
  88   0.0000       2.352961        64.0273 
  89   0.0000       2.371519        64.5323 
  90   0.0000       2.497653        67.9646 
  91   0.0000       2.561262        69.6955 
  92   0.0000       2.578257        70.1579 
  93   0.0000       2.635723        71.7217 
  94   0.0000       2.693998        73.3074 
  95   0.0000       2.787653        75.8559 
  96   0.0000       2.814319        76.5815 
  97   0.0000       2.863671        77.9245 
  98   0.0000       3.100536        84.3699 
  99   0.0000       3.178930        86.5031 
-------
TIMINGS
-------

Total SCF time: 0 days 0 hours 0 min 3 sec 

Total time                  ....       3.191 sec
Sum of individual times     ....       3.168 sec  ( 99.3%)

Fock matrix formation       ....       2.767 sec  ( 86.7%)
  Split-RI-J                ....       0.845 sec  ( 30.6% of F)
  Chain of spheres X        ....       1.691 sec  ( 61.1% of F)
  COS-X 1 center corr.      ....       0.000 sec  (  0.0% of F)
  XC integration            ....       0.223 sec  (  8.0% of F)
    Basis function eval.    ....       0.083 sec  ( 37.2% of XC)
    Density eval.           ....       0.033 sec  ( 14.9% of XC)
    XC-Functional eval.     ....       0.013 sec  (  5.8% of XC)
    XC-Potential eval.      ....       0.064 sec  ( 28.9% of XC)
Diagonalization             ....       0.002 sec  (  0.1%)
Density matrix formation    ....       0.001 sec  (  0.0%)
Population analysis         ....       0.000 sec  (  0.0%)
Initial guess               ....       0.002 sec  (  0.1%)
Orbital Transformation      ....       0.000 sec  (  0.0%)
Orbital Orthonormalization  ....       0.001 sec  (  0.0%)
DIIS solution               ....       0.000 sec  (  0.0%)
SOSCF solution              ....       0.039 sec  (  1.2%)
Grid generation             ....       0.356 sec  ( 11.2%)


-------------------------------------------------------------------------------
                          DFT DISPERSION CORRECTION                            
                                                                               
                              DFTD3 V3.1  Rev 1                                
                          USING Becke-Johnson damping                          
-------------------------------------------------------------------------------
The B3LYP functional is recognized
Active option DFTDOPT                   ...         4   

molecular C6(AA) [au] = 1155.551835 


            DFT-D V3
 parameters
 s6 scaling factor         :     1.0000 
 a1 scaling factor         :     0.3981 
 s8 scaling factor         :     1.9889 
 a2 scaling factor         :     4.4211 
 ad hoc parameters k1-k3   :    16.0000     1.3333    -4.0000 

 Edisp/kcal,au: -8.421057876168  -0.013419808506 
 E6   /kcal   :  -4.057810458 
 E8   /kcal   :  -4.363247419 
 % E8         :  51.813530826 

-------------------------   ----------------
Dispersion correction           -0.013419809
-------------------------   ----------------


-------------------------   --------------------
FINAL SINGLE POINT ENERGY      -227.271926401517
-------------------------   --------------------

                                *** OPTIMIZATION RUN DONE ***

                            ***************************************
                            *     ORCA property calculations      *
                            ***************************************

                                    ---------------------
                                    Active property flags
                                    ---------------------
   (+) Dipole Moment


------------------------------------------------------------------------------
                       ORCA ELECTRIC PROPERTIES CALCULATION
------------------------------------------------------------------------------

Dipole Moment Calculation                       ... on
Quadrupole Moment Calculation                   ... off
Polarizability Calculation                      ... off
GBWName                                         ... g8raf/frag_22_c00001.gbw
Electron density file                           ... g8raf/frag_22_c00001.scfp.tmp
The origin for moment calculation is the CENTER OF MASS  = ( 3.252691, -0.441937  0.243515)

-------------
DIPOLE MOMENT
-------------
                                X             Y             Z
Electronic contribution:     -1.83937       0.12619       0.57320
Nuclear contribution   :      1.69846      -0.20619      -0.60185
                        -----------------------------------------
Total Dipole Moment    :     -0.14091      -0.08000      -0.02865
                        -----------------------------------------
Magnitude (a.u.)       :      0.16454
Magnitude (Debye)      :      0.41824


Timings for individual modules:

Sum of individual times         ...      181.695 sec (=   3.028 min)
GTO integral calculation        ...       13.192 sec (=   0.220 min)   7.3 %
SCF iterations                  ...      129.293 sec (=   2.155 min)  71.2 %
SCF Gradient evaluation         ...       37.881 sec (=   0.631 min)  20.8 %
Geometry relaxation             ...        1.330 sec (=   0.022 min)   0.7 %
                             ****ORCA TERMINATED NORMALLY****
TOTAL RUN TIME: 0 days 0 hours 3 minutes 5 seconds 416 msec
