
                                 *****************
                                 * O   R   C   A *
                                 *****************

           --- An Ab Initio, DFT and Semiempirical electronic structure package ---

                  #######################################################
                  #                        -***-                        #
                  #  Department of molecular theory and spectroscopy    #
                  #              Directorship: Frank Neese              #
                  # Max Planck Institute for Chemical Energy Conversion #
                  #                  D-45470 Muelheim/Ruhr              #
                  #                       Germany                       #
                  #                                                     #
                  #                  All rights reserved                #
                  #                        -***-                        #
                  #######################################################


                         Program Version 4.0.1.2 - RELEASE -


 With contributions from (in alphabetic order):
   Daniel Aravena         : Magnetic Properties
   Michael Atanasov       : Ab Initio Ligand Field Theory
   Ute Becker             : Parallelization
   Martin Brehm           : Molecular dynamics
   Dmytro Bykov           : SCF Hessian
   Vijay G. Chilkuri      : MRCI spin determinant printing
   Dipayan Datta          : RHF DLPNO-CCSD density
   Achintya Kumar Dutta   : EOM-CC, STEOM-CC
   Dmitry Ganyushin       : Spin-Orbit,Spin-Spin,Magnetic field MRCI
   Yang Guo               : DLPNO-NEVPT2, CIM, IAO-localization
   Andreas Hansen         : Spin unrestricted coupled pair/coupled cluster methods
   Lee Huntington         : MR-EOM, pCC
   Robert Izsak           : Overlap fitted RIJCOSX, COSX-SCS-MP3, EOM
   Christian Kollmar      : KDIIS, OOCD, Brueckner-CCSD(T), CCSD density
   Simone Kossmann        : Meta GGA functionals, TD-DFT gradient, OOMP2, MP2 Hessian
   Martin Krupicka        : AUTO-CI
   Dagmar Lenk            : GEPOL surface
   Dimitrios Liakos       : Extrapolation schemes; parallel MDCI
   Dimitrios Manganas     : ROCIS; embedding schemes
   Dimitrios Pantazis     : SARC Basis sets
   Taras Petrenko         : DFT Hessian,TD-DFT gradient, ASA, ECA, R-Raman, ABS, FL, XAS/XES, NRVS
   Peter Pinski           : DLPNO-MP2
   Christoph Reimann      : Effective Core Potentials
   Marius Retegan         : Local ZFS, SOC
   Christoph Riplinger    : Optimizer, TS searches, QM/MM, DLPNO-CCSD(T), (RO)-DLPNO pert. Triples
   Tobias Risthaus        : Range-separated hybrids, TD-DFT gradient, RPA, STAB
   Michael Roemelt        : Restricted open shell CIS
   Masaaki Saitow         : Open-shell DLPNO
   Barbara Sandhoefer     : DKH picture change effects
   Kantharuban Sivalingam : CASSCF convergence, NEVPT2, FIC-MRCI
   Georgi Stoychev        : AutoAux
   Boris Wezisla          : Elementary symmetry handling
   Frank Wennmohs         : Technical directorship


 We gratefully acknowledge several colleagues who have allowed us to
 interface, adapt or use parts of their codes:
   Stefan Grimme, W. Hujo, H. Kruse,             : VdW corrections, initial TS optimization,
                  C. Bannwarth                     DFT functionals, gCP, sTDA/sTD-DF
   Ed Valeev                                     : LibInt (2-el integral package), F12 methods
   Garnet Chan, S. Sharma, J. Yang, R. Olivares  : DMRG
   Ulf Ekstrom                                   : XCFun DFT Library
   Mihaly Kallay                                 : mrcc  (arbitrary order and MRCC methods)
   Andreas Klamt, Michael Diedenhofen            : otool_cosmo (COSMO solvation model)
   Jiri Pittner, Ondrej Demel                    : Mk-CCSD
   Frank Weinhold                                : gennbo (NPA and NBO analysis)
   Christopher J. Cramer and Donald G. Truhlar   : smd solvation model


 Your calculation uses the libint2 library for the computation of 2-el integrals
 For citations please refer to: http://libint.valeyev.net

 This ORCA versions uses:
   CBLAS   interface :  Fast vector & matrix operations
   LAPACKE interface :  Fast linear algebra routines
   SCALAPACK package :  Parallel linear algebra routines


Your calculation utilizes the atom-pairwise dispersion correction
with the Becke-Johnson damping scheme (D3BJ)
Cite in your paper:
S.Grimme, S.Ehrlich, L.Goerigk, J Comput Chem, (2011), 32, 1456–1465 
S.Grimme, J.Antony, S.Ehrlich and H.Krieg, J.Chem.Phys., 132, (2010), 154104 
   

Your calculation utilizes the basis: cc-pVDZ 
       H, B-Ne : Obtained from the ccRepo (grant-hill.group.shef.ac.uk/ccrepo) Feb. 2017
                 T. H. Dunning, Jr., J. Chem. Phys. 90, 1007 (1989)
            He : Obtained from the ccRepo (grant-hill.group.shef.ac.uk/ccrepo) Feb. 2017
                 D. E. Woon, T. H. Dunning, Jr., J. Chem. Phys. 100, 2975 (1994)
  Li-Be, Na-Mg : Obtained from the ccRepo (grant-hill.group.shef.ac.uk/ccrepo) Feb. 2017
                 B. P. Prascher, D. E. Woon, K. A. Peterson, T. H. Dunning, Jr., A. K. Wilson, Theor. Chem. Acc. 128, 69 (2011)
         Al-Ar : Obtained from the ccRepo (grant-hill.group.shef.ac.uk/ccrepo) Feb. 2017
                 D. E. Woon, T. H. Dunning, Jr., J. Chem. Phys. 98, 1358 (1993)
            Ca : Obtained from the Peterson Research Group Website (tyr0.chem.wsu.edu/~kipeters) Feb. 2017
                 J. Koput, K. A. Peterson, J. Phys. Chem. 106, 9595 (2002)
         Sc-Zn : Obtained from the ccRepo (grant-hill.group.shef.ac.uk/ccrepo) Feb. 2017
                 N. B. Balabanov, K. A. Peterson, J. Chem. Phys. 123, 064107 (2005)
                 N. B. Balabanov, K. A. Peterson, J. Chem. Phys. 125, 074110 (2006)
         Ga-Kr : Obtained from the ccRepo (grant-hill.group.shef.ac.uk/ccrepo) Feb. 2017
                 A. K. Wilson, D. E. Woon, K. A. Peterson, T. H. Dunning, Jr., J. Chem. Phys. 110, 7667 (1999)

Your calculation utilizes the auxiliary basis: def2/J
   F. Weigend, Phys. Chem. Chem. Phys. 8, 1057 (2006).

================================================================================
                                        WARNINGS
                       Please study these warnings very carefully!
================================================================================

Warning: TCutStore was < 0. Adjusted to Thresh (uncritical)

WARNING: Geometry Optimization
  ===> : Switching off AutoStart
         For restart on a previous wavefunction, please use MOREAD

INFO   : the flag for use of LIBINT has been found!

================================================================================
                                       INPUT FILE
================================================================================
NAME = g8raf/frag_23_c00001.com
|  1> %pal nprocs 6 end
|  2> %maxcore 1000
|  3> ! b3lyp TIGHTSCF nopop D3BJ
|  4> ! cc-pvdz def2/J RIJCOSX
|  5> ! Opt
|  6> 
|  7> %geom
|  8> maxiter 60
|  9> TolE 1e-4
| 10> TolRMSG 2e-3
| 11> TolMaxG 3e-3
| 12> TolRMSD 2e-2
| 13> TolMaxD 3e-2
| 14> end
| 15> 
| 16> *xyz 0 1
| 17> C 3.0922 -0.4912 0.0073
| 18> C 1.6132 -0.6688 -0.0137
| 19> N 1.0772 -1.9188 -0.0216
| 20> N 0.7554 0.2987 -0.0256
| 21> C 3.7223 0.6894 0.0167
| 22> H 3.6718 -1.4089 -0.0075
| 23> H 1.5544 -2.6134 0.5378
| 24> H 0.0812 -1.8771 0.1726
| 25> H 1.2219 1.2063 -0.0319
| 26> H 4.8078 0.7234 0.0187
| 27> H 3.209 1.6428 0.0204
| 28> *
| 29> 
| 30> 
| 31>                          ****END OF INPUT****
================================================================================

                       *****************************
                       * Geometry Optimization Run *
                       *****************************

Geometry optimization settings:
Update method            Update   .... BFGS
Choice of coordinates    CoordSys .... Redundant Internals
Initial Hessian          InHess   .... Almoef's Model

Convergence Tolerances:
Energy Change            TolE     ....  1.0000e-04 Eh
Max. Gradient            TolMAXG  ....  3.0000e-03 Eh/bohr
RMS Gradient             TolRMSG  ....  2.0000e-03 Eh/bohr
Max. Displacement        TolMAXD  ....  3.0000e-02 bohr
RMS Displacement         TolRMSD  ....  2.0000e-02 bohr

------------------------------------------------------------------------------
                        ORCA OPTIMIZATION COORDINATE SETUP
------------------------------------------------------------------------------

The optimization will be done in new redundant internal coordinates
Making redundant internal coordinates   ...  (new redundants) done
Evaluating the initial hessian          ...  (Almloef) done
Evaluating the coordinates              ...  done
Calculating the B-matrix                .... done
Calculating the G-matrix                .... done
Diagonalizing the G-matrix              .... done
The first mode is                       ....   10
The number of degrees of freedom        ....   27

    -----------------------------------------------------------------
                    Redundant Internal Coordinates


    -----------------------------------------------------------------
         Definition                    Initial Value    Approx d2E/dq
    -----------------------------------------------------------------
      1. B(C   1,C   0)                  1.4898         0.433069   
      2. B(N   2,C   1)                  1.3601         0.624578   
      3. B(N   3,C   1)                  1.2931         0.798966   
      4. B(C   4,C   0)                  1.3383         0.755600   
      5. B(H   5,C   0)                  1.0855         0.366091   
      6. B(H   6,N   2)                  1.0115         0.430342   
      7. B(H   7,N   2)                  1.0156         0.423878   
      8. B(H   8,N   3)                  1.0205         0.416350   
      9. B(H   9,C   4)                  1.0860         0.365385   
     10. B(H  10,C   4)                  1.0828         0.369748   
     11. A(C   1,C   0,C   4)          124.9387         0.421716   
     12. A(C   4,C   0,H   5)          119.6375         0.366025   
     13. A(C   1,C   0,H   5)          115.4109         0.333233   
     14. A(N   2,C   1,N   3)          115.2247         0.449061   
     15. A(C   0,C   1,N   2)          120.0586         0.405057   
     16. A(C   0,C   1,N   3)          124.7167         0.423172   
     17. A(C   1,N   2,H   6)          116.2307         0.358783   
     18. A(H   6,N   2,H   7)          112.6508         0.301995   
     19. A(C   1,N   2,H   7)          110.3427         0.357860   
     20. A(C   1,N   3,H   8)          111.2386         0.372120   
     21. A(H   9,C   4,H  10)          116.5029         0.292722   
     22. A(C   0,C   4,H  10)          123.6136         0.366649   
     23. A(C   0,C   4,H   9)          119.8834         0.365904   
     24. D(N   2,C   1,C   0,C   4)   -179.9904         0.012808   
     25. D(N   3,C   1,C   0,C   4)      0.0086         0.012808   
     26. D(N   2,C   1,C   0,H   5)      1.3317         0.012808   
     27. D(N   3,C   1,C   0,H   5)   -178.6693         0.012808   
     28. D(H   7,N   2,C   1,C   0)    167.3660         0.031625   
     29. D(H   6,N   2,C   1,N   3)   -142.4669         0.031625   
     30. D(H   6,N   2,C   1,C   0)     37.5322         0.031625   
     31. D(H   7,N   2,C   1,N   3)    -12.6331         0.031625   
     32. D(H   8,N   3,C   1,N   2)   -179.2091         0.049183   
     33. D(H   8,N   3,C   1,C   0)      0.7918         0.049183   
     34. D(H  10,C   4,C   0,H   5)    179.2977         0.040775   
     35. D(H  10,C   4,C   0,C   1)      0.6717         0.040775   
     36. D(H   9,C   4,C   0,H   5)     -0.5603         0.040775   
     37. D(H   9,C   4,C   0,C   1)   -179.1863         0.040775   
    -----------------------------------------------------------------

Number of atoms                         .... 11
Number of degrees of freedom            .... 37

         *************************************************************
         *                GEOMETRY OPTIMIZATION CYCLE   1            *
         *************************************************************
---------------------------------
CARTESIAN COORDINATES (ANGSTROEM)
---------------------------------
  C      3.092200   -0.491200    0.007300
  C      1.613200   -0.668800   -0.013700
  N      1.077200   -1.918800   -0.021600
  N      0.755400    0.298700   -0.025600
  C      3.722300    0.689400    0.016700
  H      3.671800   -1.408900   -0.007500
  H      1.554400   -2.613400    0.537800
  H      0.081200   -1.877100    0.172600
  H      1.221900    1.206300   -0.031900
  H      4.807800    0.723400    0.018700
  H      3.209000    1.642800    0.020400

----------------------------
CARTESIAN COORDINATES (A.U.)
----------------------------
  NO LB      ZA    FRAG     MASS         X           Y           Z
   0 C     6.0000    0    12.011    5.843411   -0.928233    0.013795
   1 C     6.0000    0    12.011    3.048506   -1.263849   -0.025889
   2 N     7.0000    0    14.007    2.035613   -3.626007   -0.040818
   3 N     7.0000    0    14.007    1.427499    0.564461   -0.048377
   4 C     6.0000    0    12.011    7.034128    1.302777    0.031558
   5 H     1.0000    0     1.008    6.938696   -2.662435   -0.014173
   6 H     1.0000    0     1.008    2.937390   -4.938610    1.016295
   7 H     1.0000    0     1.008    0.153446   -3.547205    0.326167
   8 H     1.0000    0     1.008    2.309056    2.279577   -0.060282
   9 H     1.0000    0     1.008    9.085425    1.367028    0.035338
  10 H     1.0000    0     1.008    6.064131    3.104442    0.038550

--------------------------------
INTERNAL COORDINATES (ANGSTROEM)
--------------------------------
 C      0   0   0     0.000000000000     0.00000000     0.00000000
 C      1   0   0     1.489773056543     0.00000000     0.00000000
 N      2   1   0     1.360095000358   120.05857629     0.00000000
 N      2   1   3     1.293065620918   124.71673882   179.99900979
 C      1   2   3     1.338256600955   124.93867329   180.00958767
 H      1   2   3     1.085508401626   115.41085840     1.33165698
 H      3   2   1     1.011492639617   116.23065861    37.53217937
 H      3   2   1     1.015612391614   110.34265825   167.36604924
 H      4   2   1     1.020489931357   111.23860364     0.79183136
 H      5   1   2     1.086034184545   119.88337799   180.81366817
 H      5   1   2     1.082802909121   123.61359808     0.67166399

---------------------------
INTERNAL COORDINATES (A.U.)
---------------------------
 C      0   0   0     0.000000000000     0.00000000     0.00000000
 C      1   0   0     2.815263078560     0.00000000     0.00000000
 N      2   1   0     2.570207066793   120.05857629     0.00000000
 N      2   1   3     2.443539896724   124.71673882   179.99900979
 C      1   2   3     2.528938472718   124.93867329   180.00958767
 H      1   2   3     2.051313595143   115.41085840     1.33165698
 H      3   2   1     1.911444075354   116.23065861    37.53217937
 H      3   2   1     1.919229278367   110.34265825   167.36604924
 H      4   2   1     1.928446492688   111.23860364     0.79183136
 H      5   1   2     2.052307180866   119.88337799   180.81366817
 H      5   1   2     2.046200955251   123.61359808     0.67166399

---------------------
BASIS SET INFORMATION
---------------------
There are 3 groups of distinct atoms

 Group   1 Type C   : 17s4p1d contracted to 3s2p1d pattern {881/31/1}
 Group   2 Type N   : 17s4p1d contracted to 3s2p1d pattern {881/31/1}
 Group   3 Type H   : 4s1p contracted to 2s1p pattern {31/1}

Atom   0C    basis set group =>   1
Atom   1C    basis set group =>   1
Atom   2N    basis set group =>   2
Atom   3N    basis set group =>   2
Atom   4C    basis set group =>   1
Atom   5H    basis set group =>   3
Atom   6H    basis set group =>   3
Atom   7H    basis set group =>   3
Atom   8H    basis set group =>   3
Atom   9H    basis set group =>   3
Atom  10H    basis set group =>   3
-------------------------------
AUXILIARY BASIS SET INFORMATION
-------------------------------
There are 3 groups of distinct atoms

 Group   1 Type C   : 12s5p4d2f1g contracted to 6s4p3d1f1g pattern {711111/2111/211/2/1}
 Group   2 Type N   : 12s5p4d2f1g contracted to 6s4p3d1f1g pattern {711111/2111/211/2/1}
 Group   3 Type H   : 5s2p1d contracted to 3s1p1d pattern {311/2/1}

Atom   0C    basis set group =>   1
Atom   1C    basis set group =>   1
Atom   2N    basis set group =>   2
Atom   3N    basis set group =>   2
Atom   4C    basis set group =>   1
Atom   5H    basis set group =>   3
Atom   6H    basis set group =>   3
Atom   7H    basis set group =>   3
Atom   8H    basis set group =>   3
Atom   9H    basis set group =>   3
Atom  10H    basis set group =>   3


           ************************************************************
           *        Program running with 6 parallel MPI-processes     *
           *              working on a common directory               *
           ************************************************************
------------------------------------------------------------------------------
                           ORCA GTO INTEGRAL CALCULATION
                           -- RI-GTO INTEGRALS CHOSEN --
------------------------------------------------------------------------------

                         BASIS SET STATISTICS AND STARTUP INFO

Gaussian basis set:
 # of primitive gaussian shells          ...  140
 # of primitive gaussian functions       ...  212
 # of contracted shells                  ...   48
 # of contracted basis functions         ...  100
 Highest angular momentum                ...    2
 Maximum contraction depth               ...    8
Auxiliary gaussian basis set:
 # of primitive gaussian shells          ...  168
 # of primitive gaussian functions       ...  446
 # of contracted shells                  ...  105
 # of contracted aux-basis functions     ...  311
 Highest angular momentum                ...    4
 Maximum contraction depth               ...    7
Ratio of auxiliary to basis functions    ...  3.11
Integral package used                  ... LIBINT
 One Electron integrals                  ... done
 Ordering auxiliary basis shells         ... done
 Integral threshhold             Thresh  ...  2.500e-11
 Primitive cut-off               TCut    ...  2.500e-12
 Pre-screening matrix                    ... done
 Shell pair data                         ... 
 Ordering of the shell pairs             ... done (   0.000 sec) 1174 of 1176 pairs
 Determination of significant pairs      ... done (   0.000 sec)
 Creation of shell pair data             ... done (   0.001 sec)
 Storage of shell pair data              ... done (   0.001 sec)
 Shell pair data done in (   0.002 sec)
 Computing two index integrals           ... done
 Cholesky decomposition of the V-matrix  ... done


Timings:
 Total evaluation time                   ...   0.318 sec (  0.005 min)
 One electron matrix time                ...   0.024 sec (  0.000 min) =  7.4%
 Schwartz matrix evaluation time         ...   0.249 sec (  0.004 min) = 78.4%
 Two index repulsion integral time       ...   0.008 sec (  0.000 min) =  2.6%
 Cholesky decomposition of V             ...   0.003 sec (  0.000 min) =  0.9%
 Three index repulsion integral time     ...   0.000 sec (  0.000 min) =  0.0%



           ************************************************************
           *        Program running with 6 parallel MPI-processes     *
           *              working on a common directory               *
           ************************************************************
-------------------------------------------------------------------------------
                                 ORCA SCF
-------------------------------------------------------------------------------

------------
SCF SETTINGS
------------
Hamiltonian:
 Density Functional     Method          .... DFT(GTOs)
 Exchange Functional    Exchange        .... B88
   X-Alpha parameter    XAlpha          ....  0.666667
   Becke's b parameter  XBeta           ....  0.004200
 Correlation Functional Correlation     .... LYP
 LDA part of GGA corr.  LDAOpt          .... VWN-5
 Gradients option       PostSCFGGA      .... off
 Hybrid DFT is turned on
   Fraction HF Exchange ScalHFX         ....  0.200000
   Scaling of DF-GGA-X  ScalDFX         ....  0.720000
   Scaling of DF-GGA-C  ScalDFC         ....  0.810000
   Scaling of DF-LDA-C  ScalLDAC        ....  1.000000
   Perturbative correction              ....  0.000000
   NL short-range parameter             ....  4.800000
 RI-approximation to the Coulomb term is turned on
   Number of auxiliary basis functions  .... 311
   RIJ-COSX (HFX calculated with COS-X)).... on


General Settings:
 Integral files         IntName         .... g8raf/frag_23_c00001
 Hartree-Fock type      HFTyp           .... RHF
 Total Charge           Charge          ....    0
 Multiplicity           Mult            ....    1
 Number of Electrons    NEL             ....   38
 Basis Dimension        Dim             ....  100
 Nuclear Repulsion      ENuc            ....    162.9386599026 Eh

Convergence Acceleration:
 DIIS                   CNVDIIS         .... on
   Start iteration      DIISMaxIt       ....    12
   Startup error        DIISStart       ....  0.200000
   # of expansion vecs  DIISMaxEq       ....     5
   Bias factor          DIISBfac        ....   1.050
   Max. coefficient     DIISMaxC        ....  10.000
 Newton-Raphson         CNVNR           .... off
 SOSCF                  CNVSOSCF        .... on
   Start iteration      SOSCFMaxIt      ....   150
   Startup grad/error   SOSCFStart      ....  0.003300
 Level Shifting         CNVShift        .... on
   Level shift para.    LevelShift      ....    0.2500
   Turn off err/grad.   ShiftErr        ....    0.0010
 Zerner damping         CNVZerner       .... off
 Static damping         CNVDamp         .... on
   Fraction old density DampFac         ....    0.7000
   Max. Damping (<1)    DampMax         ....    0.9800
   Min. Damping (>=0)   DampMin         ....    0.0000
   Turn off err/grad.   DampErr         ....    0.1000
 Fernandez-Rico         CNVRico         .... off

SCF Procedure:
 Maximum # iterations   MaxIter         ....   125
 SCF integral mode      SCFMode         .... Direct
   Integral package                     .... LIBINT
 Reset frequeny         DirectResetFreq ....    20
 Integral Threshold     Thresh          ....  2.500e-11 Eh
 Primitive CutOff       TCut            ....  2.500e-12 Eh

Convergence Tolerance:
 Convergence Check Mode ConvCheckMode   .... Total+1el-Energy
 Convergence forced     ConvForced      .... 0
 Energy Change          TolE            ....  1.000e-08 Eh
 1-El. energy change                    ....  1.000e-05 Eh
 Orbital Gradient       TolG            ....  1.000e-05
 Orbital Rotation angle TolX            ....  1.000e-05
 DIIS Error             TolErr          ....  5.000e-07


Diagonalization of the overlap matrix:
Smallest eigenvalue                        ... 2.083e-03
Time for diagonalization                   ...    0.003 sec
Threshold for overlap eigenvalues          ... 1.000e-08
Number of eigenvalues below threshold      ... 0
Time for construction of square roots      ...    0.001 sec
Total time needed                          ...    0.004 sec

-------------------
DFT GRID GENERATION
-------------------

General Integration Accuracy     IntAcc      ...  4.340
Radial Grid Type                 RadialGrid  ... Gauss-Chebyshev
Angular Grid (max. acc.)         AngularGrid ... Lebedev-110
Angular grid pruning method      GridPruning ... 3 (G Style)
Weight generation scheme         WeightScheme... Becke
Basis function cutoff            BFCut       ...    1.0000e-11
Integration weight cutoff        WCut        ...    1.0000e-14
Grids for H and He will be reduced by one unit

# of grid points (after initial pruning)     ...  13136 (   0.0 sec)
# of grid points (after weights+screening)   ...  12453 (   0.0 sec)
nearest neighbour list constructed           ...    0.0 sec
Grid point re-assignment to atoms done       ...    0.0 sec
Grid point division into batches done        ...    0.0 sec
Reduced shell lists constructed in    0.0 sec

Total number of grid points                  ...    12453
Total number of batches                      ...      201
Average number of points per batch           ...       61
Average number of grid points per atom       ...     1132
Average number of shells per batch           ...    46.43 (96.73%)
Average number of basis functions per batch  ...    96.54 (96.54%)
Average number of large shells per batch     ...    42.77 (92.12%)
Average number of large basis fcns per batch ...    89.29 (92.48%)
Maximum spatial batch extension              ...   3.40,  3.59, 19.99 au
Average spatial batch extension              ...   0.30,  0.28,  0.51 au

Time for grid setup =    0.050 sec

------------------------------
INITIAL GUESS: MODEL POTENTIAL
------------------------------
Loading Hartree-Fock densities                     ... done
Calculating cut-offs                               ... done
Setting up the integral package                    ... done
Initializing the effective Hamiltonian             ... done
Starting the Coulomb interaction                   ... done (   0.0 sec)
Reading the grid                                   ... done
Mapping shells                                     ... done
Starting the XC term evaluation                    ... done (   0.0 sec)
  promolecular density results
     # of electrons  =     38.000976064
     EX              =    -30.319695798
     EC              =     -1.257273679
     EX+EC           =    -31.576969477
Transforming the Hamiltonian                       ... done (   0.0 sec)
Diagonalizing the Hamiltonian                      ... done (   0.0 sec)
Back transforming the eigenvectors                 ... done (   0.0 sec)
Now organizing SCF variables                       ... done
                      ------------------
                      INITIAL GUESS DONE (   0.2 sec)
                      ------------------
--------------------
COSX GRID GENERATION
--------------------

General Integration Accuracy     IntAcc      ...  3.340
Radial Grid Type                 RadialGrid  ... Gauss-Chebyshev
Angular Grid (max. acc.)         AngularGrid ... Lebedev-50
Angular grid pruning method      GridPruning ... 3 (G Style)
Weight generation scheme         WeightScheme... Becke
Basis function cutoff            BFCut       ...    1.0000e-11
Integration weight cutoff        WCut        ...    1.0000e-14
Grids for H and He will be reduced by one unit

# of grid points (after initial pruning)     ...   4792 (   0.0 sec)
# of grid points (after weights+screening)   ...   4562 (   0.0 sec)
nearest neighbour list constructed           ...    0.0 sec
Grid point re-assignment to atoms done       ...    0.0 sec
Grid point division into batches done        ...    0.0 sec
Reduced shell lists constructed in    0.0 sec

Total number of grid points                  ...     4562
Total number of batches                      ...       77
Average number of points per batch           ...       59
Average number of grid points per atom       ...      415
Average number of shells per batch           ...    44.57 (92.86%)
Average number of basis functions per batch  ...    92.86 (92.86%)
Average number of large shells per batch     ...    41.43 (92.95%)
Average number of large basis fcns per batch ...    85.86 (92.46%)
Maximum spatial batch extension              ...   3.25,  3.29, 17.15 au
Average spatial batch extension              ...   0.36,  0.36,  0.85 au

Overlap Fitting                  UseSFitting ... on
Constructing numerical overlap ... done (      0.0 sec)
Inverting numerical overlap    ... done (      0.0 sec)
Obtaining analytic overlap     ... done (      0.0 sec)
Final contraction and storage  ... done (      0.0 sec)


General Integration Accuracy     IntAcc      ...  3.670
Radial Grid Type                 RadialGrid  ... Gauss-Chebyshev
Angular Grid (max. acc.)         AngularGrid ... Lebedev-50
Angular grid pruning method      GridPruning ... 3 (G Style)
Weight generation scheme         WeightScheme... Becke
Basis function cutoff            BFCut       ...    1.0000e-11
Integration weight cutoff        WCut        ...    1.0000e-14
Grids for H and He will be reduced by one unit

# of grid points (after initial pruning)     ...   6146 (   0.0 sec)
# of grid points (after weights+screening)   ...   5843 (   0.0 sec)
nearest neighbour list constructed           ...    0.0 sec
Grid point re-assignment to atoms done       ...    0.0 sec
Grid point division into batches done        ...    0.0 sec
Reduced shell lists constructed in    0.0 sec

Total number of grid points                  ...     5843
Total number of batches                      ...       96
Average number of points per batch           ...       60
Average number of grid points per atom       ...      531
Average number of shells per batch           ...    45.18 (94.12%)
Average number of basis functions per batch  ...    94.12 (94.12%)
Average number of large shells per batch     ...    42.18 (93.36%)
Average number of large basis fcns per batch ...    87.47 (92.94%)
Maximum spatial batch extension              ...   3.11,  3.23, 18.60 au
Average spatial batch extension              ...   0.35,  0.35,  0.74 au

Overlap Fitting                  UseSFitting ... on
Constructing numerical overlap ... done (      0.0 sec)
Inverting numerical overlap    ... done (      0.0 sec)
Obtaining analytic overlap     ... done (      0.0 sec)
Final contraction and storage  ... done (      0.0 sec)


General Integration Accuracy     IntAcc      ...  4.010
Radial Grid Type                 RadialGrid  ... Gauss-Chebyshev
Angular Grid (max. acc.)         AngularGrid ... Lebedev-110
Angular grid pruning method      GridPruning ... 3 (G Style)
Weight generation scheme         WeightScheme... Becke
Basis function cutoff            BFCut       ...    1.0000e-11
Integration weight cutoff        WCut        ...    1.0000e-14
Grids for H and He will be reduced by one unit

# of grid points (after initial pruning)     ...  11348 (   0.0 sec)
# of grid points (after weights+screening)   ...  10777 (   0.0 sec)
nearest neighbour list constructed           ...    0.0 sec
Grid point re-assignment to atoms done       ...    0.0 sec
Grid point division into batches done        ...    0.0 sec
Reduced shell lists constructed in    0.0 sec

Total number of grid points                  ...    10777
Total number of batches                      ...      173
Average number of points per batch           ...       62
Average number of grid points per atom       ...      980
Average number of shells per batch           ...    46.23 (96.32%)
Average number of basis functions per batch  ...    96.17 (96.17%)
Average number of large shells per batch     ...    42.30 (91.49%)
Average number of large basis fcns per batch ...    87.90 (91.40%)
Maximum spatial batch extension              ...   3.65,  3.73, 19.65 au
Average spatial batch extension              ...   0.31,  0.32,  0.57 au

Overlap Fitting                  UseSFitting ... on
Constructing numerical overlap ... done (      0.0 sec)
Inverting numerical overlap    ... done (      0.0 sec)
Obtaining analytic overlap     ... done (      0.0 sec)
Final contraction and storage  ... done (      0.0 sec)

Time for X-Grid setup             =    0.198 sec
--------------
SCF ITERATIONS
--------------
ITER       Energy         Delta-E        Max-DP      RMS-DP      [F,P]     Damp
               ***  Starting incremental Fock matrix formation  ***
  0   -227.0425844211   0.000000000000 0.10750779  0.00376974  0.2714575 0.7000
  1   -227.1527160305  -0.110131609453 0.06995447  0.00257721  0.1179722 0.7000
                               ***Turning on DIIS***
  2   -227.1933282738  -0.040612243295 0.09186175  0.00367605  0.0414459 0.0000
  3   -227.2540605292  -0.060732255404 0.04878028  0.00192067  0.0710626 0.0000
  4   -227.2702988328  -0.016238303586 0.00827892  0.00053508  0.0150304 0.0000
  5   -227.2714259769  -0.001127144055 0.00272331  0.00016732  0.0039305 0.0000
                      *** Initiating the SOSCF procedure ***
                           *** Shutting down DIIS ***
                      *** Re-Reading the Fockian *** 
                      *** Removing any level shift *** 
ITER      Energy       Delta-E        Grad      Rot      Max-DP    RMS-DP
  6   -227.27149138  -0.0000654067  0.000428  0.000428  0.001005  0.000064
               *** Restarting incremental Fock matrix formation ***
  7   -227.27150438  -0.0000129939  0.000180  0.000548  0.000830  0.000043
  8   -227.27150493  -0.0000005488  0.000197  0.000425  0.000453  0.000016
  9   -227.27150526  -0.0000003368  0.000089  0.000155  0.000199  0.000012
 10   -227.27150530  -0.0000000380  0.000056  0.000080  0.000115  0.000004
 11   -227.27150538  -0.0000000767  0.000022  0.000078  0.000069  0.000004
 12   -227.27150538  -0.0000000009  0.000018  0.000036  0.000042  0.000002
 13   -227.27150538  -0.0000000058  0.000005  0.000012  0.000022  0.000001
 14   -227.27150538  -0.0000000001  0.000004  0.000004  0.000014  0.000000
                  ***Gradient check signals convergence***
              ***Rediagonalizing the Fockian in SOSCF/NRSCF***

               *****************************************************
               *                     SUCCESS                       *
               *           SCF CONVERGED AFTER  15 CYCLES          *
               *****************************************************

Setting up the final grid:

General Integration Accuracy     IntAcc      ...  4.670
Radial Grid Type                 RadialGrid  ... Gauss-Chebyshev
Angular Grid (max. acc.)         AngularGrid ... Lebedev-302
Angular grid pruning method      GridPruning ... 3 (G Style)
Weight generation scheme         WeightScheme... Becke
Basis function cutoff            BFCut       ...    1.0000e-11
Integration weight cutoff        WCut        ...    1.0000e-14
Grids for H and He will be reduced by one unit

# of grid points (after initial pruning)     ...  51424 (   0.0 sec)
# of grid points (after weights+screening)   ...  48274 (   0.0 sec)
nearest neighbour list constructed           ...    0.0 sec
Grid point re-assignment to atoms done       ...    0.0 sec
Grid point division into batches done        ...    0.2 sec
Reduced shell lists constructed in    0.3 sec

Total number of grid points                  ...    48274
Total number of batches                      ...      762
Average number of points per batch           ...       63
Average number of grid points per atom       ...     4389
Average number of shells per batch           ...    46.29 (96.44%)
Average number of basis functions per batch  ...    96.16 (96.16%)
Average number of large shells per batch     ...    40.64 (87.80%)
Average number of large basis fcns per batch ...    84.23 (87.59%)
Maximum spatial batch extension              ...   7.94, 11.04, 23.04 au
Average spatial batch extension              ...   0.21,  0.22,  0.30 au

Final grid set up in    0.3 sec
Final integration                            ... done (   0.1 sec)
Change in XC energy                          ...    -0.000373835
Integrated number of electrons               ...    37.999937526
Previous integrated no of electrons          ...    38.000760613
Old exchange energy                            =     -6.178370155 Eh
New exchange energy                            =     -6.178331298 Eh
Exchange energy change after final integration =      0.000038857 Eh
Total energy after final integration           =   -227.271840364 Eh
Final COS-X integration done in                =     0.698 sec

----------------
TOTAL SCF ENERGY
----------------

Total Energy       :         -227.27184036 Eh           -6184.38118 eV

Components:
Nuclear Repulsion  :          162.93865990 Eh            4433.78635 eV
Electronic Energy  :         -390.21050027 Eh          -10618.16753 eV
One Electron Energy:         -628.98251192 Eh          -17115.48428 eV
Two Electron Energy:          238.77201165 Eh            6497.31675 eV

Virial components:
Potential Energy   :         -453.17651674 Eh          -12331.55994 eV
Kinetic Energy     :          225.90467638 Eh            6147.17876 eV
Virial Ratio       :            2.00605195


DFT components:
N(Alpha)           :       18.999968763193 electrons
N(Beta)            :       18.999968763193 electrons
N(Total)           :       37.999937526386 electrons
E(X)               :      -24.541651249874 Eh       
E(C)               :       -1.492007312365 Eh       
E(XC)              :      -26.033658562239 Eh       

---------------
SCF CONVERGENCE
---------------

  Last Energy change         ...   -9.8333e-10  Tolerance :   1.0000e-08
  Last MAX-Density change    ...    4.1306e-14  Tolerance :   1.0000e-07
  Last RMS-Density change    ...    5.8510e-16  Tolerance :   5.0000e-09
  Last Orbital Gradient      ...    9.3997e-07  Tolerance :   1.0000e-05
  Last Orbital Rotation      ...    2.8210e-06  Tolerance :   1.0000e-05

             **** THE GBW FILE WAS UPDATED (g8raf/frag_23_c00001.gbw) ****
             **** DENSITY FILE WAS UPDATED (g8raf/frag_23_c00001.scfp.tmp) ****
             **** ENERGY FILE WAS UPDATED (g8raf/frag_23_c00001.en.tmp) ****
----------------
ORBITAL ENERGIES
----------------

  NO   OCC          E(Eh)            E(eV) 
   0   2.0000     -14.330562      -389.9544 
   1   2.0000     -14.275868      -388.4661 
   2   2.0000     -10.247093      -278.8376 
   3   2.0000     -10.204683      -277.6836 
   4   2.0000     -10.201088      -277.5857 
   5   2.0000      -0.943923       -25.6854 
   6   2.0000      -0.834276       -22.7018 
   7   2.0000      -0.775106       -21.0917 
   8   2.0000      -0.636298       -17.3145 
   9   2.0000      -0.558593       -15.2001 
  10   2.0000      -0.518483       -14.1086 
  11   2.0000      -0.483556       -13.1582 
  12   2.0000      -0.439829       -11.9684 
  13   2.0000      -0.420275       -11.4363 
  14   2.0000      -0.381530       -10.3820 
  15   2.0000      -0.373755       -10.1704 
  16   2.0000      -0.280649        -7.6368 
  17   2.0000      -0.250189        -6.8080 
  18   2.0000      -0.223403        -6.0791 
  19   0.0000      -0.036128        -0.9831 
  20   0.0000       0.057351         1.5606 
  21   0.0000       0.077888         2.1195 
  22   0.0000       0.086455         2.3525 
  23   0.0000       0.105411         2.8684 
  24   0.0000       0.128664         3.5011 
  25   0.0000       0.152024         4.1368 
  26   0.0000       0.184340         5.0161 
  27   0.0000       0.265353         7.2206 
  28   0.0000       0.300558         8.1786 
  29   0.0000       0.338146         9.2014 
  30   0.0000       0.415874        11.3165 
  31   0.0000       0.434805        11.8317 
  32   0.0000       0.465438        12.6652 
  33   0.0000       0.467535        12.7223 
  34   0.0000       0.507224        13.8023 
  35   0.0000       0.532644        14.4940 
  36   0.0000       0.550176        14.9711 
  37   0.0000       0.570770        15.5314 
  38   0.0000       0.587988        16.0000 
  39   0.0000       0.591718        16.1015 
  40   0.0000       0.628183        17.0937 
  41   0.0000       0.652962        17.7680 
  42   0.0000       0.677417        18.4334 
  43   0.0000       0.700810        19.0700 
  44   0.0000       0.741440        20.1756 
  45   0.0000       0.762486        20.7483 
  46   0.0000       0.787095        21.4179 
  47   0.0000       0.835113        22.7246 
  48   0.0000       0.864202        23.5161 
  49   0.0000       0.880272        23.9534 
  50   0.0000       0.914188        24.8763 
  51   0.0000       0.941617        25.6227 
  52   0.0000       0.948770        25.8174 
  53   0.0000       0.988990        26.9118 
  54   0.0000       1.011915        27.5356 
  55   0.0000       1.044108        28.4116 
  56   0.0000       1.083283        29.4776 
  57   0.0000       1.123372        30.5685 
  58   0.0000       1.154431        31.4137 
  59   0.0000       1.301396        35.4128 
  60   0.0000       1.316096        35.8128 
  61   0.0000       1.389867        37.8202 
  62   0.0000       1.394413        37.9439 
  63   0.0000       1.474119        40.1128 
  64   0.0000       1.483437        40.3664 
  65   0.0000       1.493644        40.6441 
  66   0.0000       1.538165        41.8556 
  67   0.0000       1.545115        42.0447 
  68   0.0000       1.580044        42.9952 
  69   0.0000       1.603861        43.6433 
  70   0.0000       1.636203        44.5234 
  71   0.0000       1.668261        45.3957 
  72   0.0000       1.704783        46.3895 
  73   0.0000       1.721734        46.8508 
  74   0.0000       1.791640        48.7530 
  75   0.0000       1.811884        49.3039 
  76   0.0000       1.868676        50.8493 
  77   0.0000       1.909078        51.9486 
  78   0.0000       1.919290        52.2265 
  79   0.0000       1.999863        54.4190 
  80   0.0000       2.022663        55.0395 
  81   0.0000       2.031684        55.2849 
  82   0.0000       2.086826        56.7854 
  83   0.0000       2.131487        58.0007 
  84   0.0000       2.180085        59.3231 
  85   0.0000       2.225192        60.5506 
  86   0.0000       2.282465        62.1090 
  87   0.0000       2.289037        62.2879 
  88   0.0000       2.391426        65.0740 
  89   0.0000       2.431486        66.1641 
  90   0.0000       2.524888        68.7057 
  91   0.0000       2.572145        69.9916 
  92   0.0000       2.599942        70.7480 
  93   0.0000       2.663390        72.4745 
  94   0.0000       2.725999        74.1782 
  95   0.0000       2.769179        75.3532 
  96   0.0000       2.850347        77.5619 
  97   0.0000       2.947652        80.2097 
  98   0.0000       3.205841        87.2354 
  99   0.0000       3.259298        88.6900 
-------
TIMINGS
-------

Total SCF time: 0 days 0 hours 0 min 9 sec 

Total time                  ....       9.846 sec
Sum of individual times     ....       9.802 sec  ( 99.6%)

Fock matrix formation       ....       8.918 sec  ( 90.6%)
  Split-RI-J                ....       2.386 sec  ( 26.8% of F)
  Chain of spheres X        ....       5.732 sec  ( 64.3% of F)
  XC integration            ....       0.729 sec  (  8.2% of F)
    Basis function eval.    ....       0.280 sec  ( 38.4% of XC)
    Density eval.           ....       0.110 sec  ( 15.1% of XC)
    XC-Functional eval.     ....       0.043 sec  (  5.8% of XC)
    XC-Potential eval.      ....       0.230 sec  ( 31.6% of XC)
Diagonalization             ....       0.018 sec  (  0.2%)
Density matrix formation    ....       0.024 sec  (  0.2%)
Population analysis         ....       0.000 sec  (  0.0%)
Initial guess               ....       0.177 sec  (  1.8%)
Orbital Transformation      ....       0.000 sec  (  0.0%)
Orbital Orthonormalization  ....       0.000 sec  (  0.0%)
DIIS solution               ....       0.005 sec  (  0.1%)
SOSCF solution              ....       0.089 sec  (  0.9%)
Grid generation             ....       0.572 sec  (  5.8%)


-------------------------------------------------------------------------------
                          DFT DISPERSION CORRECTION                            
                                                                               
                              DFTD3 V3.1  Rev 1                                
                          USING Becke-Johnson damping                          
-------------------------------------------------------------------------------
The B3LYP functional is recognized
Active option DFTDOPT                   ...         4   

molecular C6(AA) [au] = 1157.115983 


            DFT-D V3
 parameters
 s6 scaling factor         :     1.0000 
 a1 scaling factor         :     0.3981 
 s8 scaling factor         :     1.9889 
 a2 scaling factor         :     4.4211 
 ad hoc parameters k1-k3   :    16.0000     1.3333    -4.0000 

 Edisp/kcal,au: -8.512946074212  -0.013566241655 
 E6   /kcal   :  -4.105812557 
 E8   /kcal   :  -4.407133517 
 % E8         :  51.769780737 

-------------------------   ----------------
Dispersion correction           -0.013566242
-------------------------   ----------------


-------------------------   --------------------
FINAL SINGLE POINT ENERGY      -227.285406605455
-------------------------   --------------------



           ************************************************************
           *        Program running with 6 parallel MPI-processes     *
           *              working on a common directory               *
           ************************************************************
------------------------------------------------------------------------------
                         ORCA SCF GRADIENT CALCULATION
------------------------------------------------------------------------------

Gradient of the Kohn-Sham DFT energy:
Kohn-Sham wavefunction type      ... RKS
Hartree-Fock exchange scaling    ...    0.200
Number of operators              ...    1
Number of atoms                  ...   11
Basis set dimensions             ...  100
Integral neglect threshold       ... 2.5e-11
Integral primitive cutoff        ... 2.5e-12

Nuclear repulsion gradient       ... done
One Electron Gradient            ... done
Pre-screening matrix             ... done
RI-J gradient                    ... done
COSX-gradient                    ... done
Exchange-correlation gradient    ... done
Dispersion correction            ... done

------------------
CARTESIAN GRADIENT
------------------

   1   C   :    0.006366962    0.003029247    0.001837384
   2   C   :    0.009803386   -0.041012114   -0.005551416
   3   N   :   -0.004285248    0.026792302    0.002940353
   4   N   :   -0.001060903   -0.000242747   -0.001428436
   5   C   :   -0.002391455    0.010374031   -0.000403335
   6   H   :   -0.005775403    0.005310524    0.000008912
   7   H   :   -0.003146415    0.004438666   -0.000629411
   8   H   :    0.001512891    0.001317225    0.000340899
   9   H   :   -0.002068865   -0.002277808    0.003590289
  10   H   :   -0.004592397   -0.000829015   -0.000232733
  11   H   :    0.005451630   -0.005272111   -0.000053765

Difference to translation invariance:
           :   -0.0001858159    0.0016282001    0.0004187396

Norm of the cartesian gradient     ...    0.0540460534
RMS gradient                       ...    0.0094082103
MAX gradient                       ...    0.0410121143

-------
TIMINGS
-------

Total SCF gradient time            ...        2.009 sec

One electron gradient       ....       0.026 sec  (  1.3%)
Prescreening matrices       ....       0.062 sec  (  3.1%)
RI-J Coulomb gradient       ....       0.306 sec  ( 15.2%)
COSX gradient               ....       0.686 sec  ( 34.1%)
XC gradient                 ....       0.450 sec  ( 22.4%)
------------------------------------------------------------------------------
                         ORCA GEOMETRY RELAXATION STEP
------------------------------------------------------------------------------

Reading the OPT-File                    .... done
Getting information on internals        .... done
Copying old internal coords+grads       .... done
Making the new internal coordinates     .... (new redundants).... done
Validating the new internal coordinates .... (new redundants).... done
Calculating the B-matrix                .... done
Calculating the G,G- and P matrices     .... done
Transforming gradient to internals      .... done
Projecting the internal gradient        .... done
Number of atoms                         ....  11
Number of internal coordinates          ....  37
Current Energy                          ....  -227.285406605 Eh
Current gradient norm                   ....     0.054046053 Eh/bohr
Maximum allowed component of the step   ....  0.300
Current trust radius                    ....  0.300
Evaluating the initial hessian          ....  (Almloef) done
Projecting the Hessian                  .... done
Forming the augmented Hessian           .... done
Diagonalizing the augmented Hessian     .... done
Last element of RFO vector              ....  0.984055219
Lowest eigenvalues of augmented Hessian:
 -0.005421720  0.012822021  0.027242370  0.027412313  0.031678863
Length of the computed step             ....  0.180745163
The final length of the internal step   ....  0.180745163
Converting the step to cartesian space:
 Initial RMS(Int)=    0.0297143217
Transforming coordinates:
 Iter   0:  RMS(Cart)=    0.0507729822 RMS(Int)=    1.0313364902
 Iter   1:  RMS(Cart)=    0.0022486772 RMS(Int)=    0.0013971720
 Iter   2:  RMS(Cart)=    0.0001029075 RMS(Int)=    0.0000644143
 Iter   3:  RMS(Cart)=    0.0000059071 RMS(Int)=    0.0000047386
 Iter   4:  RMS(Cart)=    0.0000003292 RMS(Int)=    0.0000002464
 Iter   5:  RMS(Cart)=    0.0000000212 RMS(Int)=    0.0000000201
done
Storing new coordinates                 .... done

                                .--------------------.
          ----------------------|Geometry convergence|-------------------------
          Item                value                   Tolerance       Converged
          ---------------------------------------------------------------------
          RMS gradient        0.0076548603            0.0020000000      NO
          MAX gradient        0.0272035825            0.0030000000      NO
          RMS step            0.0297143217            0.0200000000      NO
          MAX step            0.0947757171            0.0300000000      NO
          ........................................................
          Max(Bonds)      0.0227      Max(Angles)    3.69
          Max(Dihed)        5.43      Max(Improp)    0.00
          ---------------------------------------------------------------------

The optimization has not yet converged - more geometry cycles are needed


    ---------------------------------------------------------------------------
                         Redundant Internal Coordinates
                            (Angstroem and degrees)

        Definition                    Value    dE/dq     Step     New-Value
    ----------------------------------------------------------------------------
     1. B(C   1,C   0)                1.4898  0.000395 -0.0005    1.4893   
     2. B(N   2,C   1)                1.3601 -0.027051  0.0227    1.3828   
     3. B(N   3,C   1)                1.2931 -0.000097  0.0001    1.2931   
     4. B(C   4,C   0)                1.3383  0.002874 -0.0020    1.3363   
     5. B(H   5,C   0)                1.0855 -0.007494  0.0107    1.0962   
     6. B(H   6,N   2)                1.0115 -0.004705  0.0057    1.0172   
     7. B(H   7,N   2)                1.0156 -0.001530  0.0019    1.0175   
     8. B(H   8,N   3)                1.0205 -0.003249  0.0041    1.0246   
     9. B(H   9,C   4)                1.0860 -0.004689  0.0067    1.0927   
    10. B(H  10,C   4)                1.0828 -0.007216  0.0102    1.0930   
    11. A(C   1,C   0,C   4)          124.94 -0.000980    0.14    125.07   
    12. A(C   4,C   0,H   5)          119.64  0.002516   -0.38    119.25   
    13. A(C   1,C   0,H   5)          115.41 -0.001545    0.27    115.68   
    14. A(N   2,C   1,N   3)          115.22 -0.019743    2.59    117.81   
    15. A(C   0,C   1,N   2)          120.06  0.027204   -3.69    116.37   
    16. A(C   0,C   1,N   3)          124.72 -0.007461    1.10    125.82   
    17. A(C   1,N   2,H   6)          116.23 -0.001150    0.40    116.63   
    18. A(H   6,N   2,H   7)          112.65  0.000294    0.35    113.01   
    19. A(C   1,N   2,H   7)          110.34 -0.001907    0.53    110.87   
    20. A(C   1,N   3,H   8)          111.24  0.001483   -0.23    111.01   
    21. A(H   9,C   4,H  10)          116.50 -0.001032    0.18    116.69   
    22. A(C   0,C   4,H  10)          123.61  0.003341   -0.53    123.09   
    23. A(C   0,C   4,H   9)          119.88 -0.002310    0.34    120.23   
    24. D(N   2,C   1,C   0,C   4)   -179.99  0.000701   -0.88   -180.87   
    25. D(N   3,C   1,C   0,C   4)      0.01 -0.001683    3.35      3.36   
    26. D(N   2,C   1,C   0,H   5)      1.33  0.001171   -1.74     -0.41   
    27. D(N   3,C   1,C   0,H   5)   -178.67 -0.001213    2.49   -176.18   
    28. D(H   7,N   2,C   1,C   0)    167.37 -0.001606    1.54    168.90   
    29. D(H   6,N   2,C   1,N   3)   -142.47  0.002982   -3.67   -146.13   
    30. D(H   6,N   2,C   1,C   0)     37.53  0.000816    0.17     37.70   
    31. D(H   7,N   2,C   1,N   3)    -12.63  0.000560   -2.30    -14.93   
    32. D(H   8,N   3,C   1,N   2)   -179.21 -0.004389    5.43   -173.78   
    33. D(H   8,N   3,C   1,C   0)      0.79 -0.002110    1.39      2.18   
    34. D(H  10,C   4,C   0,H   5)    179.30 -0.000264    0.44    179.74   
    35. D(H  10,C   4,C   0,C   1)      0.67  0.000276   -0.46      0.21   
    36. D(H   9,C   4,C   0,H   5)     -0.56 -0.000074    0.21     -0.35   
    37. D(H   9,C   4,C   0,C   1)   -179.19  0.000466   -0.69   -179.88   
    ----------------------------------------------------------------------------

         *************************************************************
         *                GEOMETRY OPTIMIZATION CYCLE   2            *
         *************************************************************
---------------------------------
CARTESIAN COORDINATES (ANGSTROEM)
---------------------------------
  C      3.068635   -0.486196    0.011392
  C      1.586299   -0.629695    0.020918
  N      1.094982   -1.921838   -0.013080
  N      0.732551    0.340747   -0.018311
  C      3.727612    0.676205    0.024018
  H      3.636364   -1.423524   -0.015385
  H      1.610832   -2.619748    0.517513
  H      0.095868   -1.934885    0.179028
  H      1.207773    1.245375   -0.092796
  H      4.820210    0.689307    0.013596
  H      3.225275    1.646653    0.046308

----------------------------
CARTESIAN COORDINATES (A.U.)
----------------------------
  NO LB      ZA    FRAG     MASS         X           Y           Z
   0 C     6.0000    0    12.011    5.798879   -0.918777    0.021527
   1 C     6.0000    0    12.011    2.997670   -1.189952    0.039529
   2 N     7.0000    0    14.007    2.069215   -3.631748   -0.024717
   3 N     7.0000    0    14.007    1.384321    0.643919   -0.034603
   4 C     6.0000    0    12.011    7.044165    1.277843    0.045388
   5 H     1.0000    0     1.008    6.871732   -2.690071   -0.029074
   6 H     1.0000    0     1.008    3.044031   -4.950607    0.977957
   7 H     1.0000    0     1.008    0.181164   -3.656404    0.338313
   8 H     1.0000    0     1.008    2.282361    2.353418   -0.175358
   9 H     1.0000    0     1.008    9.108877    1.302601    0.025693
  10 H     1.0000    0     1.008    6.094887    3.111723    0.087509

--------------------------------
INTERNAL COORDINATES (ANGSTROEM)
--------------------------------
 C      0   0   0     0.000000000000     0.00000000     0.00000000
 C      1   0   0     1.489296187899     0.00000000     0.00000000
 N      2   1   0     1.382816602337   116.32868572     0.00000000
 N      2   1   3     1.293129299313   125.77678918   184.16062565
 C      1   2   3     1.336258148082   125.07186519   179.16551704
 H      1   2   3     1.096183401217   115.67458532   359.62352057
 H      3   2   1     1.017205961932   116.62243119    37.68909251
 H      3   2   1     1.017498760425   110.86835039   168.89639575
 H      4   2   1     1.024566135688   111.01347115     2.09365829
 H      5   1   2     1.092726341639   120.22738361   180.12006406
 H      5   1   2     1.092981082139   123.08680469     0.21395361

---------------------------
INTERNAL COORDINATES (A.U.)
---------------------------
 C      0   0   0     0.000000000000     0.00000000     0.00000000
 C      1   0   0     2.814361927422     0.00000000     0.00000000
 N      2   1   0     2.613144671856   116.32868572     0.00000000
 N      2   1   3     2.443660231452   125.77678918   184.16062565
 C      1   2   3     2.525161944095   125.07186519   179.16551704
 H      1   2   3     2.071486420851   115.67458532   359.62352057
 H      3   2   1     1.922240689843   116.62243119    37.68909251
 H      3   2   1     1.922793998807   110.86835039   168.89639575
 H      4   2   1     1.936149402540   111.01347115     2.09365829
 H      5   1   2     2.064953525019   120.22738361   180.12006406
 H      5   1   2     2.065434914799   123.08680469     0.21395361



           ************************************************************
           *        Program running with 6 parallel MPI-processes     *
           *              working on a common directory               *
           ************************************************************
 One Electron integrals                  ... done
 Pre-screening matrix                    ... done


           ************************************************************
           *        Program running with 6 parallel MPI-processes     *
           *              working on a common directory               *
           ************************************************************

Diagonalization of the overlap matrix:
Smallest eigenvalue                        ... 2.129e-03
Time for diagonalization                   ...    0.003 sec
Threshold for overlap eigenvalues          ... 1.000e-08
Number of eigenvalues below threshold      ... 0
Time for construction of square roots      ...    0.001 sec
Total time needed                          ...    0.004 sec

-------------------
DFT GRID GENERATION
-------------------

General Integration Accuracy     IntAcc      ...  4.340
Radial Grid Type                 RadialGrid  ... Gauss-Chebyshev
Angular Grid (max. acc.)         AngularGrid ... Lebedev-110
Angular grid pruning method      GridPruning ... 3 (G Style)
Weight generation scheme         WeightScheme... Becke
Basis function cutoff            BFCut       ...    1.0000e-11
Integration weight cutoff        WCut        ...    1.0000e-14
Grids for H and He will be reduced by one unit

# of grid points (after initial pruning)     ...  13136 (   0.0 sec)
# of grid points (after weights+screening)   ...  12455 (   0.0 sec)
nearest neighbour list constructed           ...    0.0 sec
Grid point re-assignment to atoms done       ...    0.0 sec
Grid point division into batches done        ...    0.0 sec
Reduced shell lists constructed in    0.0 sec

Total number of grid points                  ...    12455
Total number of batches                      ...      201
Average number of points per batch           ...       61
Average number of grid points per atom       ...     1132
Average number of shells per batch           ...    46.43 (96.73%)
Average number of basis functions per batch  ...    96.54 (96.54%)
Average number of large shells per batch     ...    42.57 (91.69%)
Average number of large basis fcns per batch ...    88.57 (91.74%)
Maximum spatial batch extension              ...   3.35,  3.59, 19.48 au
Average spatial batch extension              ...   0.29,  0.31,  0.45 au

Time for grid setup =    0.052 sec

--------------------
COSX GRID GENERATION
--------------------

General Integration Accuracy     IntAcc      ...  3.340
Radial Grid Type                 RadialGrid  ... Gauss-Chebyshev
Angular Grid (max. acc.)         AngularGrid ... Lebedev-50
Angular grid pruning method      GridPruning ... 3 (G Style)
Weight generation scheme         WeightScheme... Becke
Basis function cutoff            BFCut       ...    1.0000e-11
Integration weight cutoff        WCut        ...    1.0000e-14
Grids for H and He will be reduced by one unit

# of grid points (after initial pruning)     ...   4792 (   0.0 sec)
# of grid points (after weights+screening)   ...   4563 (   0.0 sec)
nearest neighbour list constructed           ...    0.0 sec
Grid point re-assignment to atoms done       ...    0.0 sec
Grid point division into batches done        ...    0.0 sec
Reduced shell lists constructed in    0.0 sec

Total number of grid points                  ...     4563
Total number of batches                      ...       77
Average number of points per batch           ...       59
Average number of grid points per atom       ...      415
Average number of shells per batch           ...    44.57 (92.86%)
Average number of basis functions per batch  ...    92.86 (92.86%)
Average number of large shells per batch     ...    41.29 (92.63%)
Average number of large basis fcns per batch ...    85.71 (92.31%)
Maximum spatial batch extension              ...   3.26,  3.33, 17.22 au
Average spatial batch extension              ...   0.36,  0.34,  0.86 au

Overlap Fitting                  UseSFitting ... on
Constructing numerical overlap ... done (      0.0 sec)
Inverting numerical overlap    ... done (      0.0 sec)
Obtaining analytic overlap     ... done (      0.0 sec)
Final contraction and storage  ... done (      0.0 sec)


General Integration Accuracy     IntAcc      ...  3.670
Radial Grid Type                 RadialGrid  ... Gauss-Chebyshev
Angular Grid (max. acc.)         AngularGrid ... Lebedev-50
Angular grid pruning method      GridPruning ... 3 (G Style)
Weight generation scheme         WeightScheme... Becke
Basis function cutoff            BFCut       ...    1.0000e-11
Integration weight cutoff        WCut        ...    1.0000e-14
Grids for H and He will be reduced by one unit

# of grid points (after initial pruning)     ...   6146 (   0.0 sec)
# of grid points (after weights+screening)   ...   5839 (   0.0 sec)
nearest neighbour list constructed           ...    0.0 sec
Grid point re-assignment to atoms done       ...    0.0 sec
Grid point division into batches done        ...    0.0 sec
Reduced shell lists constructed in    0.0 sec

Total number of grid points                  ...     5839
Total number of batches                      ...       96
Average number of points per batch           ...       60
Average number of grid points per atom       ...      531
Average number of shells per batch           ...    45.18 (94.12%)
Average number of basis functions per batch  ...    94.12 (94.12%)
Average number of large shells per batch     ...    42.18 (93.36%)
Average number of large basis fcns per batch ...    87.47 (92.94%)
Maximum spatial batch extension              ...   3.05,  3.33, 18.62 au
Average spatial batch extension              ...   0.34,  0.34,  0.74 au

Overlap Fitting                  UseSFitting ... on
Constructing numerical overlap ... done (      0.0 sec)
Inverting numerical overlap    ... done (      0.0 sec)
Obtaining analytic overlap     ... done (      0.0 sec)
Final contraction and storage  ... done (      0.0 sec)


General Integration Accuracy     IntAcc      ...  4.010
Radial Grid Type                 RadialGrid  ... Gauss-Chebyshev
Angular Grid (max. acc.)         AngularGrid ... Lebedev-110
Angular grid pruning method      GridPruning ... 3 (G Style)
Weight generation scheme         WeightScheme... Becke
Basis function cutoff            BFCut       ...    1.0000e-11
Integration weight cutoff        WCut        ...    1.0000e-14
Grids for H and He will be reduced by one unit

# of grid points (after initial pruning)     ...  11348 (   0.0 sec)
# of grid points (after weights+screening)   ...  10773 (   0.0 sec)
nearest neighbour list constructed           ...    0.0 sec
Grid point re-assignment to atoms done       ...    0.0 sec
Grid point division into batches done        ...    0.0 sec
Reduced shell lists constructed in    0.0 sec

Total number of grid points                  ...    10773
Total number of batches                      ...      174
Average number of points per batch           ...       61
Average number of grid points per atom       ...      979
Average number of shells per batch           ...    46.27 (96.39%)
Average number of basis functions per batch  ...    96.27 (96.27%)
Average number of large shells per batch     ...    42.27 (91.35%)
Average number of large basis fcns per batch ...    88.13 (91.55%)
Maximum spatial batch extension              ...   3.53,  3.62, 19.01 au
Average spatial batch extension              ...   0.30,  0.31,  0.56 au

Overlap Fitting                  UseSFitting ... on
Constructing numerical overlap ... done (      0.0 sec)
Inverting numerical overlap    ... done (      0.0 sec)
Obtaining analytic overlap     ... done (      0.0 sec)
Final contraction and storage  ... done (      0.0 sec)

Time for X-Grid setup             =    0.192 sec
--------------
SCF ITERATIONS
--------------
ITER       Energy         Delta-E        Max-DP      RMS-DP      [F,P]     Damp
               ***  Starting incremental Fock matrix formation  ***
  0   -227.2721073059   0.000000000000 0.00617394  0.00030470  0.0205509 0.7000
                      *** Initiating the SOSCF procedure ***
                      *** Re-Reading the Fockian *** 
                      *** Removing any level shift *** 
ITER      Energy       Delta-E        Grad      Rot      Max-DP    RMS-DP
  1   -227.27283345  -0.0007261450  0.001728  0.001728  0.018759  0.000945
               *** Restarting incremental Fock matrix formation ***
  2   -227.27474720  -0.0019137507  0.001025  0.003145  0.005295  0.000230
  3   -227.27475066  -0.0000034536  0.002118  0.004150  0.004516  0.000148
  4   -227.27480049  -0.0000498395  0.000379  0.000871  0.001358  0.000078
  5   -227.27480458  -0.0000040885  0.000160  0.000303  0.000512  0.000021
  6   -227.27480543  -0.0000008479  0.000100  0.000273  0.000350  0.000016
  7   -227.27480571  -0.0000002780  0.000063  0.000136  0.000150  0.000007
  8   -227.27480576  -0.0000000552  0.000044  0.000085  0.000066  0.000005
  9   -227.27480580  -0.0000000340  0.000010  0.000029  0.000027  0.000002
 10   -227.27480580  -0.0000000050  0.000007  0.000010  0.000017  0.000001
                  ***Gradient check signals convergence***
              ***Rediagonalizing the Fockian in SOSCF/NRSCF***

               *****************************************************
               *                     SUCCESS                       *
               *           SCF CONVERGED AFTER  11 CYCLES          *
               *****************************************************

Setting up the final grid:

General Integration Accuracy     IntAcc      ...  4.670
Radial Grid Type                 RadialGrid  ... Gauss-Chebyshev
Angular Grid (max. acc.)         AngularGrid ... Lebedev-302
Angular grid pruning method      GridPruning ... 3 (G Style)
Weight generation scheme         WeightScheme... Becke
Basis function cutoff            BFCut       ...    1.0000e-11
Integration weight cutoff        WCut        ...    1.0000e-14
Grids for H and He will be reduced by one unit

# of grid points (after initial pruning)     ...  51424 (   0.0 sec)
# of grid points (after weights+screening)   ...  48292 (   0.0 sec)
nearest neighbour list constructed           ...    0.0 sec
Grid point re-assignment to atoms done       ...    0.0 sec
Grid point division into batches done        ...    0.2 sec
Reduced shell lists constructed in    0.3 sec

Total number of grid points                  ...    48292
Total number of batches                      ...      761
Average number of points per batch           ...       63
Average number of grid points per atom       ...     4390
Average number of shells per batch           ...    46.27 (96.40%)
Average number of basis functions per batch  ...    96.09 (96.09%)
Average number of large shells per batch     ...    40.82 (88.22%)
Average number of large basis fcns per batch ...    84.54 (87.98%)
Maximum spatial batch extension              ...   7.45, 11.10, 23.12 au
Average spatial batch extension              ...   0.21,  0.22,  0.31 au

Final grid set up in    0.3 sec
Final integration                            ... done (   0.1 sec)
Change in XC energy                          ...    -0.000441776
Integrated number of electrons               ...    37.999894017
Previous integrated no of electrons          ...    38.000230109
Old exchange energy                            =     -6.172390688 Eh
New exchange energy                            =     -6.172380206 Eh
Exchange energy change after final integration =      0.000010483 Eh
Total energy after final integration           =   -227.275237099 Eh
Final COS-X integration done in                =     0.678 sec
Total Energy       :         -227.27523710 Eh           -6184.47361 eV
  Last Energy change         ...   -1.6657e-09  Tolerance :   1.0000e-08
  Last MAX-Density change    ...    2.7988e-14  Tolerance :   1.0000e-07
             **** THE GBW FILE WAS UPDATED (g8raf/frag_23_c00001.gbw) ****
             **** DENSITY FILE WAS UPDATED (g8raf/frag_23_c00001.scfp.tmp) ****
             **** ENERGY FILE WAS UPDATED (g8raf/frag_23_c00001.en.tmp) ****
Total SCF time: 0 days 0 hours 0 min 7 sec 


-------------------------------------------------------------------------------
                          DFT DISPERSION CORRECTION                            
                                                                               
                              DFTD3 V3.1  Rev 1                                
                          USING Becke-Johnson damping                          
-------------------------------------------------------------------------------
-------------------------   ----------------
Dispersion correction           -0.013534868
-------------------------   ----------------


-------------------------   --------------------
FINAL SINGLE POINT ENERGY      -227.288771966132
-------------------------   --------------------



           ************************************************************
           *        Program running with 6 parallel MPI-processes     *
           *              working on a common directory               *
           ************************************************************
------------------------------------------------------------------------------
                         ORCA SCF GRADIENT CALCULATION
------------------------------------------------------------------------------

Gradient of the Kohn-Sham DFT energy:
Kohn-Sham wavefunction type      ... RKS
Hartree-Fock exchange scaling    ...    0.200
Number of operators              ...    1
Number of atoms                  ...   11
Basis set dimensions             ...  100
Integral neglect threshold       ... 2.5e-11
Integral primitive cutoff        ... 2.5e-12

Nuclear repulsion gradient       ... done
One Electron Gradient            ... done
Pre-screening matrix             ... done
RI-J gradient                    ... done
COSX-gradient                    ... done
Exchange-correlation gradient    ... done
Dispersion correction            ... done

------------------
CARTESIAN GRADIENT
------------------

   1   C   :    0.001297101    0.005645159   -0.000306755
   2   C   :    0.008178225   -0.020171928    0.003024258
   3   N   :   -0.003078962    0.006683137   -0.001682013
   4   N   :   -0.002748268    0.006498934   -0.001740291
   5   C   :   -0.003454926    0.002145331   -0.000604683
   6   H   :   -0.000956104   -0.000429439    0.000156594
   7   H   :   -0.000276786   -0.000935447    0.000696458
   8   H   :    0.000214729    0.001800020    0.000375361
   9   H   :   -0.001027572    0.000960113    0.000383990
  10   H   :    0.000134354   -0.000922287    0.000192755
  11   H   :    0.001552847    0.000347309   -0.000261416

Difference to translation invariance:
           :   -0.0001653616    0.0016209019    0.0002342569

Norm of the cartesian gradient     ...    0.0255909073
RMS gradient                       ...    0.0044548052
MAX gradient                       ...    0.0201719279

-------
TIMINGS
-------

Total SCF gradient time            ...        1.805 sec

One electron gradient       ....       0.029 sec  (  1.6%)
Prescreening matrices       ....       0.062 sec  (  3.4%)
RI-J Coulomb gradient       ....       0.259 sec  ( 14.3%)
COSX gradient               ....       0.593 sec  ( 32.8%)
XC gradient                 ....       0.477 sec  ( 26.4%)
------------------------------------------------------------------------------
                         ORCA GEOMETRY RELAXATION STEP
------------------------------------------------------------------------------

Reading the OPT-File                    .... done
Getting information on internals        .... done
Copying old internal coords+grads       .... done
Making the new internal coordinates     .... (new redundants).... done
Validating the new internal coordinates .... (new redundants).... done
Calculating the B-matrix                .... done
Calculating the G,G- and P matrices     .... done
Transforming gradient to internals      .... done
Projecting the internal gradient        .... done
Number of atoms                         ....  11
Number of internal coordinates          ....  37
Current Energy                          ....  -227.288771966 Eh
Current gradient norm                   ....     0.025590907 Eh/bohr
Maximum allowed component of the step   ....  0.300
Current trust radius                    ....  0.300
Updating the Hessian (BFGS)             .... done
Forming the augmented Hessian           .... done
Diagonalizing the augmented Hessian     .... done
Last element of RFO vector              ....  0.992536664
Lowest eigenvalues of augmented Hessian:
 -0.001371672  0.012769269  0.027299865  0.029850849  0.032095274
Length of the computed step             ....  0.122863558
The final length of the internal step   ....  0.122863558
Converting the step to cartesian space:
 Initial RMS(Int)=    0.0201986445
Transforming coordinates:
 Iter   0:  RMS(Cart)=    0.0452941238 RMS(Int)=    1.4525907257
 Iter   1:  RMS(Cart)=    0.0013151721 RMS(Int)=    0.0007778267
 Iter   2:  RMS(Cart)=    0.0000385226 RMS(Int)=    0.0000193175
 Iter   3:  RMS(Cart)=    0.0000020548 RMS(Int)=    0.0000013016
 Iter   4:  RMS(Cart)=    0.0000000783 RMS(Int)=    0.0000000452
done
Storing new coordinates                 .... done

                                .--------------------.
          ----------------------|Geometry convergence|-------------------------
          Item                value                   Tolerance       Converged
          ---------------------------------------------------------------------
          Energy change      -0.0033653607            0.0001000000      NO
          RMS gradient        0.0030148969            0.0020000000      NO
          MAX gradient        0.0117738995            0.0030000000      NO
          RMS step            0.0201986445            0.0200000000      NO
          MAX step            0.0626597729            0.0300000000      NO
          ........................................................
          Max(Bonds)      0.0100      Max(Angles)    2.83
          Max(Dihed)        3.59      Max(Improp)    0.00
          ---------------------------------------------------------------------

The optimization has not yet converged - more geometry cycles are needed


    ---------------------------------------------------------------------------
                         Redundant Internal Coordinates
                            (Angstroem and degrees)

        Definition                    Value    dE/dq     Step     New-Value
    ----------------------------------------------------------------------------
     1. B(C   1,C   0)                1.4893 -0.000932  0.0014    1.4907   
     2. B(N   2,C   1)                1.3828 -0.005359  0.0100    1.3929   
     3. B(N   3,C   1)                1.2931  0.007874 -0.0070    1.2862   
     4. B(C   4,C   0)                1.3363  0.000295 -0.0006    1.3356   
     5. B(H   5,C   0)                1.0962 -0.000047  0.0019    1.0981   
     6. B(H   6,N   2)                1.0172  0.001033 -0.0007    1.0165   
     7. B(H   7,N   2)                1.0175 -0.000299  0.0008    1.0183   
     8. B(H   8,N   3)                1.0246  0.000098  0.0005    1.0251   
     9. B(H   9,C   4)                1.0927  0.000058  0.0010    1.0938   
    10. B(H  10,C   4)                1.0930 -0.000416  0.0026    1.0955   
    11. A(C   1,C   0,C   4)          125.07 -0.000397    0.10    125.17   
    12. A(C   4,C   0,H   5)          119.25  0.001219   -0.32    118.93   
    13. A(C   1,C   0,H   5)          115.67 -0.000823    0.23    115.91   
    14. A(N   2,C   1,N   3)          117.77 -0.005168    1.35    119.12   
    15. A(C   0,C   1,N   2)          116.33  0.011774   -2.83    113.50   
    16. A(C   0,C   1,N   3)          125.78 -0.006652    1.42    127.19   
    17. A(C   1,N   2,H   6)          116.62  0.001597   -0.19    116.43   
    18. A(H   6,N   2,H   7)          113.00  0.000347    0.12    113.12   
    19. A(C   1,N   2,H   7)          110.87 -0.002674    0.74    111.61   
    20. A(C   1,N   3,H   8)          111.01  0.002611   -0.57    110.44   
    21. A(H   9,C   4,H  10)          116.69 -0.000349    0.11    116.80   
    22. A(C   0,C   4,H  10)          123.09  0.002514   -0.62    122.47   
    23. A(C   0,C   4,H   9)          120.23 -0.002165    0.51    120.73   
    24. D(N   2,C   1,C   0,C   4)    179.17 -0.000985    3.59    182.76   
    25. D(N   3,C   1,C   0,C   4)      3.33 -0.000063    1.67      5.00   
    26. D(N   2,C   1,C   0,H   5)     -0.38 -0.000786    2.96      2.58   
    27. D(N   3,C   1,C   0,H   5)   -176.22  0.000136    1.04   -175.17   
    28. D(H   7,N   2,C   1,C   0)    168.90  0.000186   -0.68    168.22   
    29. D(H   6,N   2,C   1,N   3)   -146.13 -0.000141    0.33   -145.80   
    30. D(H   6,N   2,C   1,C   0)     37.69  0.000842   -1.40     36.29   
    31. D(H   7,N   2,C   1,N   3)    -14.92 -0.000797    1.05    -13.87   
    32. D(H   8,N   3,C   1,N   2)   -173.69 -0.000297    0.29   -173.40   
    33. D(H   8,N   3,C   1,C   0)      2.09 -0.000601    2.01      4.10   
    34. D(H  10,C   4,C   0,H   5)    179.74 -0.000247    0.58    180.32   
    35. D(H  10,C   4,C   0,C   1)      0.21 -0.000033   -0.08      0.14   
    36. D(H   9,C   4,C   0,H   5)     -0.35 -0.000295    0.64      0.29   
    37. D(H   9,C   4,C   0,C   1)   -179.88 -0.000080   -0.02   -179.90   
    ----------------------------------------------------------------------------

         *************************************************************
         *                GEOMETRY OPTIMIZATION CYCLE   3            *
         *************************************************************
---------------------------------
CARTESIAN COORDINATES (ANGSTROEM)
---------------------------------
  C      3.051872   -0.485983   -0.008668
  C      1.565679   -0.601753    0.001817
  N      1.110124   -1.918006    0.002136
  N      0.709920    0.357864   -0.030827
  C      3.734452    0.660979    0.041056
  H      3.606475   -1.432430   -0.058880
  H      1.659424   -2.586662    0.535476
  H      0.113044   -1.969685    0.202499
  H      1.186667    1.259220   -0.136253
  H      4.828140    0.661592    0.027442
  H      3.240603    1.637265    0.097401

----------------------------
CARTESIAN COORDINATES (A.U.)
----------------------------
  NO LB      ZA    FRAG     MASS         X           Y           Z
   0 C     6.0000    0    12.011    5.767203   -0.918375   -0.016380
   1 C     6.0000    0    12.011    2.958705   -1.137149    0.003434
   2 N     7.0000    0    14.007    2.097830   -3.624505    0.004036
   3 N     7.0000    0    14.007    1.341555    0.676265   -0.058255
   4 C     6.0000    0    12.011    7.057092    1.249069    0.077585
   5 H     1.0000    0     1.008    6.815250   -2.706901   -0.111267
[...]
Radial Grid Type                 RadialGrid  ... Gauss-Chebyshev
Angular Grid (max. acc.)         AngularGrid ... Lebedev-50
Angular grid pruning method      GridPruning ... 3 (G Style)
Weight generation scheme         WeightScheme... Becke
Basis function cutoff            BFCut       ...    1.0000e-11
Integration weight cutoff        WCut        ...    1.0000e-14
Grids for H and He will be reduced by one unit

# of grid points (after initial pruning)     ...   4792 (   0.0 sec)
# of grid points (after weights+screening)   ...   4561 (   0.0 sec)
nearest neighbour list constructed           ...    0.0 sec
Grid point re-assignment to atoms done       ...    0.0 sec
Grid point division into batches done        ...    0.0 sec
Reduced shell lists constructed in    0.0 sec

Total number of grid points                  ...     4561
Total number of batches                      ...       77
Average number of points per batch           ...       59
Average number of grid points per atom       ...      415
Average number of shells per batch           ...    44.57 (92.86%)
Average number of basis functions per batch  ...    92.86 (92.86%)
Average number of large shells per batch     ...    41.50 (93.11%)
Average number of large basis fcns per batch ...    86.50 (93.15%)
Maximum spatial batch extension              ...   3.18,  3.20,  8.56 au
Average spatial batch extension              ...   0.35,  0.36,  0.59 au

Overlap Fitting                  UseSFitting ... on
Constructing numerical overlap ... done (      0.0 sec)
Inverting numerical overlap    ... done (      0.0 sec)
Obtaining analytic overlap     ... done (      0.0 sec)
Final contraction and storage  ... done (      0.0 sec)


General Integration Accuracy     IntAcc      ...  3.670
Radial Grid Type                 RadialGrid  ... Gauss-Chebyshev
Angular Grid (max. acc.)         AngularGrid ... Lebedev-50
Angular grid pruning method      GridPruning ... 3 (G Style)
Weight generation scheme         WeightScheme... Becke
Basis function cutoff            BFCut       ...    1.0000e-11
Integration weight cutoff        WCut        ...    1.0000e-14
Grids for H and He will be reduced by one unit

# of grid points (after initial pruning)     ...   6146 (   0.0 sec)
# of grid points (after weights+screening)   ...   5838 (   0.0 sec)
nearest neighbour list constructed           ...    0.0 sec
Grid point re-assignment to atoms done       ...    0.0 sec
Grid point division into batches done        ...    0.0 sec
Reduced shell lists constructed in    0.0 sec

Total number of grid points                  ...     5838
Total number of batches                      ...       96
Average number of points per batch           ...       60
Average number of grid points per atom       ...      531
Average number of shells per batch           ...    45.18 (94.12%)
Average number of basis functions per batch  ...    94.12 (94.12%)
Average number of large shells per batch     ...    42.06 (93.10%)
Average number of large basis fcns per batch ...    87.59 (93.06%)
Maximum spatial batch extension              ...   3.12,  3.30, 11.70 au
Average spatial batch extension              ...   0.35,  0.35,  0.53 au

Overlap Fitting                  UseSFitting ... on
Constructing numerical overlap ... done (      0.0 sec)
Inverting numerical overlap    ... done (      0.0 sec)
Obtaining analytic overlap     ... done (      0.0 sec)
Final contraction and storage  ... done (      0.0 sec)


General Integration Accuracy     IntAcc      ...  4.010
Radial Grid Type                 RadialGrid  ... Gauss-Chebyshev
Angular Grid (max. acc.)         AngularGrid ... Lebedev-110
Angular grid pruning method      GridPruning ... 3 (G Style)
Weight generation scheme         WeightScheme... Becke
Basis function cutoff            BFCut       ...    1.0000e-11
Integration weight cutoff        WCut        ...    1.0000e-14
Grids for H and He will be reduced by one unit

# of grid points (after initial pruning)     ...  11348 (   0.0 sec)
# of grid points (after weights+screening)   ...  10778 (   0.0 sec)
nearest neighbour list constructed           ...    0.0 sec
Grid point re-assignment to atoms done       ...    0.0 sec
Grid point division into batches done        ...    0.0 sec
Reduced shell lists constructed in    0.0 sec

Total number of grid points                  ...    10778
Total number of batches                      ...      174
Average number of points per batch           ...       61
Average number of grid points per atom       ...      980
Average number of shells per batch           ...    46.23 (96.32%)
Average number of basis functions per batch  ...    96.17 (96.17%)
Average number of large shells per batch     ...    42.70 (92.36%)
Average number of large basis fcns per batch ...    89.10 (92.65%)
Maximum spatial batch extension              ...   3.56,  3.14,  8.40 au
Average spatial batch extension              ...   0.30,  0.29,  0.40 au

Overlap Fitting                  UseSFitting ... on
Constructing numerical overlap ... done (      0.0 sec)
Inverting numerical overlap    ... done (      0.0 sec)
Obtaining analytic overlap     ... done (      0.0 sec)
Final contraction and storage  ... done (      0.0 sec)

Time for X-Grid setup             =    0.196 sec
--------------
SCF ITERATIONS
--------------
ITER       Energy         Delta-E        Max-DP      RMS-DP      [F,P]     Damp
               ***  Starting incremental Fock matrix formation  ***
                      *** Initiating the SOSCF procedure ***
                      *** Re-Reading the Fockian *** 
                      *** Removing any level shift *** 
ITER      Energy       Delta-E        Grad      Rot      Max-DP    RMS-DP
  0   -227.27631146 -227.2763114596  0.002159  0.002159  0.004887  0.000197
               *** Restarting incremental Fock matrix formation ***
  1   -227.27648416  -0.0001727053  0.001106  0.002894  0.002118  0.000101
  2   -227.27651093  -0.0000267655  0.000161  0.000917  0.000929  0.000036
  3   -227.27650976   0.0000011709  0.000376  0.000642  0.000750  0.000022
  4   -227.27651197  -0.0000022098  0.000038  0.000097  0.000173  0.000006
  5   -227.27651194   0.0000000317  0.000054  0.000062  0.000101  0.000003
  6   -227.27651201  -0.0000000710  0.000005  0.000017  0.000026  0.000001
  7   -227.27651201   0.0000000002  0.000009  0.000016  0.000018  0.000000
  8   -227.27651201  -0.0000000014  0.000003  0.000006  0.000006  0.000000
                  ***Gradient check signals convergence***
              ***Rediagonalizing the Fockian in SOSCF/NRSCF***

               *****************************************************
               *                     SUCCESS                       *
               *           SCF CONVERGED AFTER   9 CYCLES          *
               *****************************************************

Setting up the final grid:

General Integration Accuracy     IntAcc      ...  4.670
Radial Grid Type                 RadialGrid  ... Gauss-Chebyshev
Angular Grid (max. acc.)         AngularGrid ... Lebedev-302
Angular grid pruning method      GridPruning ... 3 (G Style)
Weight generation scheme         WeightScheme... Becke
Basis function cutoff            BFCut       ...    1.0000e-11
Integration weight cutoff        WCut        ...    1.0000e-14
Grids for H and He will be reduced by one unit

# of grid points (after initial pruning)     ...  51424 (   0.0 sec)
# of grid points (after weights+screening)   ...  48278 (   0.0 sec)
nearest neighbour list constructed           ...    0.0 sec
Grid point re-assignment to atoms done       ...    0.0 sec
Grid point division into batches done        ...    0.2 sec
Reduced shell lists constructed in    0.2 sec

Total number of grid points                  ...    48278
Total number of batches                      ...      760
Average number of points per batch           ...       63
Average number of grid points per atom       ...     4389
Average number of shells per batch           ...    46.02 (95.88%)
Average number of basis functions per batch  ...    95.49 (95.49%)
Average number of large shells per batch     ...    40.80 (88.64%)
Average number of large basis fcns per batch ...    84.78 (88.78%)
Maximum spatial batch extension              ...   6.34, 12.21, 15.72 au
Average spatial batch extension              ...   0.22,  0.23,  0.28 au

Final grid set up in    0.3 sec
Final integration                            ... done (   0.1 sec)
Change in XC energy                          ...    -0.000158191
Integrated number of electrons               ...    37.999910462
Previous integrated no of electrons          ...    37.999770135
Old exchange energy                            =     -6.172746682 Eh
New exchange energy                            =     -6.172585482 Eh
Exchange energy change after final integration =      0.000161200 Eh
Total energy after final integration           =   -227.276508999 Eh
Final COS-X integration done in                =     0.695 sec

----------------
TOTAL SCF ENERGY
----------------

Total Energy       :         -227.27650900 Eh           -6184.50822 eV

Components:
Nuclear Repulsion  :          162.28425090 Eh            4415.97897 eV
Electronic Energy  :         -389.56075990 Eh          -10600.48720 eV
One Electron Energy:         -627.70649712 Eh          -17080.76216 eV
Two Electron Energy:          238.14573722 Eh            6480.27496 eV

Virial components:
Potential Energy   :         -453.07102448 Eh          -12328.68935 eV
Kinetic Energy     :          225.79451548 Eh            6144.18113 eV
Virial Ratio       :            2.00656346


DFT components:
N(Alpha)           :       18.999955231112 electrons
N(Beta)            :       18.999955231112 electrons
N(Total)           :       37.999910462225 electrons
E(X)               :      -24.520893907648 Eh       
E(C)               :       -1.490465488118 Eh       
E(XC)              :      -26.011359395766 Eh       

---------------
SCF CONVERGENCE
---------------

  Last Energy change         ...    1.9250e-09  Tolerance :   1.0000e-08
  Last MAX-Density change    ...    1.0591e-13  Tolerance :   1.0000e-07
  Last RMS-Density change    ...    1.0776e-15  Tolerance :   5.0000e-09
  Last Orbital Gradient      ...    1.3560e-06  Tolerance :   1.0000e-05
  Last Orbital Rotation      ...    1.8938e-06  Tolerance :   1.0000e-05

             **** THE GBW FILE WAS UPDATED (g8raf/frag_23_c00001.gbw) ****
             **** DENSITY FILE WAS UPDATED (g8raf/frag_23_c00001.scfp.tmp) ****
             **** ENERGY FILE WAS UPDATED (g8raf/frag_23_c00001.en.tmp) ****
----------------
ORBITAL ENERGIES
----------------

  NO   OCC          E(Eh)            E(eV) 
   0   2.0000     -14.332959      -390.0197 
   1   2.0000     -14.282098      -388.6356 
   2   2.0000     -10.250313      -278.9252 
   3   2.0000     -10.202758      -277.6312 
   4   2.0000     -10.200636      -277.5734 
   5   2.0000      -0.936245       -25.4765 
   6   2.0000      -0.838955       -22.8291 
   7   2.0000      -0.775003       -21.0889 
   8   2.0000      -0.633278       -17.2324 
   9   2.0000      -0.554286       -15.0829 
  10   2.0000      -0.513662       -13.9775 
  11   2.0000      -0.483256       -13.1501 
  12   2.0000      -0.443352       -12.0642 
  13   2.0000      -0.414310       -11.2740 
  14   2.0000      -0.379510       -10.3270 
  15   2.0000      -0.371544       -10.1102 
  16   2.0000      -0.278630        -7.5819 
  17   2.0000      -0.253105        -6.8873 
  18   2.0000      -0.231418        -6.2972 
  19   0.0000      -0.032218        -0.8767 
  20   0.0000       0.057850         1.5742 
  21   0.0000       0.074624         2.0306 
  22   0.0000       0.083864         2.2821 
  23   0.0000       0.104122         2.8333 
  24   0.0000       0.126948         3.4544 
  25   0.0000       0.149628         4.0716 
  26   0.0000       0.169957         4.6248 
  27   0.0000       0.263123         7.1599 
  28   0.0000       0.306284         8.3344 
  29   0.0000       0.324083         8.8187 
  30   0.0000       0.387588        10.5468 
  31   0.0000       0.435970        11.8634 
  32   0.0000       0.464362        12.6359 
  33   0.0000       0.470826        12.8118 
  34   0.0000       0.508117        13.8266 
  35   0.0000       0.528193        14.3729 
  36   0.0000       0.555109        15.1053 
  37   0.0000       0.568512        15.4700 
  38   0.0000       0.575608        15.6631 
  39   0.0000       0.591802        16.1038 
  40   0.0000       0.630583        17.1590 
  41   0.0000       0.652221        17.7478 
  42   0.0000       0.672958        18.3121 
  43   0.0000       0.701618        19.0920 
  44   0.0000       0.733910        19.9707 
  45   0.0000       0.743004        20.2182 
  46   0.0000       0.790617        21.5138 
  47   0.0000       0.835505        22.7352 
  48   0.0000       0.839352        22.8399 
  49   0.0000       0.859889        23.3988 
  50   0.0000       0.911485        24.8028 
  51   0.0000       0.956031        26.0149 
  52   0.0000       0.967678        26.3319 
  53   0.0000       0.993109        27.0239 
  54   0.0000       1.015342        27.6289 
  55   0.0000       1.053799        28.6753 
  56   0.0000       1.079165        29.3656 
  57   0.0000       1.110549        30.2196 
  58   0.0000       1.160730        31.5851 
  59   0.0000       1.297842        35.3161 
  60   0.0000       1.316065        35.8120 
  61   0.0000       1.361730        37.0545 
  62   0.0000       1.382540        37.6208 
  63   0.0000       1.464231        39.8438 
  64   0.0000       1.482613        40.3439 
  65   0.0000       1.491450        40.5844 
  66   0.0000       1.533500        41.7287 
  67   0.0000       1.549177        42.1552 
  68   0.0000       1.574354        42.8403 
  69   0.0000       1.621630        44.1268 
  70   0.0000       1.638347        44.5817 
  71   0.0000       1.664224        45.2858 
  72   0.0000       1.694655        46.1139 
  73   0.0000       1.712767        46.6068 
  74   0.0000       1.779283        48.4167 
  75   0.0000       1.804035        49.0903 
  76   0.0000       1.865839        50.7721 
  77   0.0000       1.894874        51.5622 
  78   0.0000       1.930134        52.5216 
  79   0.0000       1.992556        54.2202 
  80   0.0000       2.007901        54.6378 
  81   0.0000       2.026211        55.1360 
  82   0.0000       2.078042        56.5464 
  83   0.0000       2.118321        57.6424 
  84   0.0000       2.171589        59.0919 
  85   0.0000       2.210123        60.1405 
  86   0.0000       2.271873        61.8208 
  87   0.0000       2.278866        62.0111 
  88   0.0000       2.397391        65.2363 
  89   0.0000       2.414742        65.7085 
  90   0.0000       2.526261        68.7431 
  91   0.0000       2.560270        69.6685 
  92   0.0000       2.567077        69.8537 
  93   0.0000       2.639452        71.8231 
  94   0.0000       2.705177        73.6116 
  95   0.0000       2.742885        74.6377 
  96   0.0000       2.847414        77.4821 
  97   0.0000       2.925743        79.6135 
  98   0.0000       3.172825        86.3370 
  99   0.0000       3.240123        88.1682 
-------
TIMINGS
-------

Total SCF time: 0 days 0 hours 0 min 6 sec 

Total time                  ....       6.618 sec
Sum of individual times     ....       6.584 sec  ( 99.5%)

Fock matrix formation       ....       5.925 sec  ( 89.5%)
  Split-RI-J                ....       1.532 sec  ( 25.9% of F)
  Chain of spheres X        ....       3.846 sec  ( 64.9% of F)
  COS-X 1 center corr.      ....       0.000 sec  (  0.0% of F)
  XC integration            ....       0.514 sec  (  8.7% of F)
    Basis function eval.    ....       0.186 sec  ( 36.1% of XC)
    Density eval.           ....       0.072 sec  ( 14.1% of XC)
    XC-Functional eval.     ....       0.028 sec  (  5.5% of XC)
    XC-Potential eval.      ....       0.145 sec  ( 28.3% of XC)
Diagonalization             ....       0.002 sec  (  0.0%)
Density matrix formation    ....       0.011 sec  (  0.2%)
Population analysis         ....       0.000 sec  (  0.0%)
Initial guess               ....       0.003 sec  (  0.0%)
Orbital Transformation      ....       0.000 sec  (  0.0%)
Orbital Orthonormalization  ....       0.002 sec  (  0.0%)
DIIS solution               ....       0.000 sec  (  0.0%)
SOSCF solution              ....       0.089 sec  (  1.4%)
Grid generation             ....       0.553 sec  (  8.3%)


-------------------------------------------------------------------------------
                          DFT DISPERSION CORRECTION                            
                                                                               
                              DFTD3 V3.1  Rev 1                                
                          USING Becke-Johnson damping                          
-------------------------------------------------------------------------------
The B3LYP functional is recognized
Active option DFTDOPT                   ...         4   

molecular C6(AA) [au] = 1157.500785 


            DFT-D V3
 parameters
 s6 scaling factor         :     1.0000 
 a1 scaling factor         :     0.3981 
 s8 scaling factor         :     1.9889 
 a2 scaling factor         :     4.4211 
 ad hoc parameters k1-k3   :    16.0000     1.3333    -4.0000 

 Edisp/kcal,au: -8.511520994858  -0.013563970647 
 E6   /kcal   :  -4.103933418 
 E8   /kcal   :  -4.407587577 
 % E8         :  51.783783179 

-------------------------   ----------------
Dispersion correction           -0.013563971
-------------------------   ----------------


-------------------------   --------------------
FINAL SINGLE POINT ENERGY      -227.290072969376
-------------------------   --------------------

                                *** OPTIMIZATION RUN DONE ***

                            ***************************************
                            *     ORCA property calculations      *
                            ***************************************

                                    ---------------------
                                    Active property flags
                                    ---------------------
   (+) Dipole Moment


------------------------------------------------------------------------------
                       ORCA ELECTRIC PROPERTIES CALCULATION
------------------------------------------------------------------------------

Dipole Moment Calculation                       ... on
Quadrupole Moment Calculation                   ... off
Polarizability Calculation                      ... off
GBWName                                         ... g8raf/frag_23_c00001.gbw
Electron density file                           ... g8raf/frag_23_c00001.scfp.tmp
The origin for moment calculation is the CENTER OF MASS  = ( 3.790870, -0.796710  0.001667)

-------------
DIPOLE MOMENT
-------------
                                X             Y             Z
Electronic contribution:     -1.62814      -0.53590      -0.29080
Nuclear contribution   :      2.42186       0.10143       0.67218
                        -----------------------------------------
Total Dipole Moment    :      0.79372      -0.43448       0.38138
                        -----------------------------------------
Magnitude (a.u.)       :      0.98194
Magnitude (Debye)      :      2.49590


Timings for individual modules:

Sum of individual times         ...       88.616 sec (=   1.477 min)
GTO integral calculation        ...        6.894 sec (=   0.115 min)   7.8 %
SCF iterations                  ...       64.836 sec (=   1.081 min)  73.2 %
SCF Gradient evaluation         ...       16.561 sec (=   0.276 min)  18.7 %
Geometry relaxation             ...        0.325 sec (=   0.005 min)   0.4 %
                             ****ORCA TERMINATED NORMALLY****
TOTAL RUN TIME: 0 days 0 hours 1 minutes 30 seconds 456 msec
