
                                 *****************
                                 * O   R   C   A *
                                 *****************

           --- An Ab Initio, DFT and Semiempirical electronic structure package ---

                  #######################################################
                  #                        -***-                        #
                  #  Department of molecular theory and spectroscopy    #
                  #              Directorship: Frank Neese              #
                  # Max Planck Institute for Chemical Energy Conversion #
                  #                  D-45470 Muelheim/Ruhr              #
                  #                       Germany                       #
                  #                                                     #
                  #                  All rights reserved                #
                  #                        -***-                        #
                  #######################################################


                         Program Version 4.0.1.2 - RELEASE -


 With contributions from (in alphabetic order):
   Daniel Aravena         : Magnetic Properties
   Michael Atanasov       : Ab Initio Ligand Field Theory
   Ute Becker             : Parallelization
   Martin Brehm           : Molecular dynamics
   Dmytro Bykov           : SCF Hessian
   Vijay G. Chilkuri      : MRCI spin determinant printing
   Dipayan Datta          : RHF DLPNO-CCSD density
   Achintya Kumar Dutta   : EOM-CC, STEOM-CC
   Dmitry Ganyushin       : Spin-Orbit,Spin-Spin,Magnetic field MRCI
   Yang Guo               : DLPNO-NEVPT2, CIM, IAO-localization
   Andreas Hansen         : Spin unrestricted coupled pair/coupled cluster methods
   Lee Huntington         : MR-EOM, pCC
   Robert Izsak           : Overlap fitted RIJCOSX, COSX-SCS-MP3, EOM
   Christian Kollmar      : KDIIS, OOCD, Brueckner-CCSD(T), CCSD density
   Simone Kossmann        : Meta GGA functionals, TD-DFT gradient, OOMP2, MP2 Hessian
   Martin Krupicka        : AUTO-CI
   Dagmar Lenk            : GEPOL surface
   Dimitrios Liakos       : Extrapolation schemes; parallel MDCI
   Dimitrios Manganas     : ROCIS; embedding schemes
   Dimitrios Pantazis     : SARC Basis sets
   Taras Petrenko         : DFT Hessian,TD-DFT gradient, ASA, ECA, R-Raman, ABS, FL, XAS/XES, NRVS
   Peter Pinski           : DLPNO-MP2
   Christoph Reimann      : Effective Core Potentials
   Marius Retegan         : Local ZFS, SOC
   Christoph Riplinger    : Optimizer, TS searches, QM/MM, DLPNO-CCSD(T), (RO)-DLPNO pert. Triples
   Tobias Risthaus        : Range-separated hybrids, TD-DFT gradient, RPA, STAB
   Michael Roemelt        : Restricted open shell CIS
   Masaaki Saitow         : Open-shell DLPNO
   Barbara Sandhoefer     : DKH picture change effects
   Kantharuban Sivalingam : CASSCF convergence, NEVPT2, FIC-MRCI
   Georgi Stoychev        : AutoAux
   Boris Wezisla          : Elementary symmetry handling
   Frank Wennmohs         : Technical directorship


 We gratefully acknowledge several colleagues who have allowed us to
 interface, adapt or use parts of their codes:
   Stefan Grimme, W. Hujo, H. Kruse,             : VdW corrections, initial TS optimization,
                  C. Bannwarth                     DFT functionals, gCP, sTDA/sTD-DF
   Ed Valeev                                     : LibInt (2-el integral package), F12 methods
   Garnet Chan, S. Sharma, J. Yang, R. Olivares  : DMRG
   Ulf Ekstrom                                   : XCFun DFT Library
   Mihaly Kallay                                 : mrcc  (arbitrary order and MRCC methods)
   Andreas Klamt, Michael Diedenhofen            : otool_cosmo (COSMO solvation model)
   Jiri Pittner, Ondrej Demel                    : Mk-CCSD
   Frank Weinhold                                : gennbo (NPA and NBO analysis)
   Christopher J. Cramer and Donald G. Truhlar   : smd solvation model


 Your calculation uses the libint2 library for the computation of 2-el integrals
 For citations please refer to: http://libint.valeyev.net

 This ORCA versions uses:
   CBLAS   interface :  Fast vector & matrix operations
   LAPACKE interface :  Fast linear algebra routines
   SCALAPACK package :  Parallel linear algebra routines


Your calculation utilizes the atom-pairwise dispersion correction
with the Becke-Johnson damping scheme (D3BJ)
Cite in your paper:
S.Grimme, S.Ehrlich, L.Goerigk, J Comput Chem, (2011), 32, 1456–1465 
S.Grimme, J.Antony, S.Ehrlich and H.Krieg, J.Chem.Phys., 132, (2010), 154104 
   

Your calculation utilizes the basis: cc-pVDZ 
       H, B-Ne : Obtained from the ccRepo (grant-hill.group.shef.ac.uk/ccrepo) Feb. 2017
                 T. H. Dunning, Jr., J. Chem. Phys. 90, 1007 (1989)
            He : Obtained from the ccRepo (grant-hill.group.shef.ac.uk/ccrepo) Feb. 2017
                 D. E. Woon, T. H. Dunning, Jr., J. Chem. Phys. 100, 2975 (1994)
  Li-Be, Na-Mg : Obtained from the ccRepo (grant-hill.group.shef.ac.uk/ccrepo) Feb. 2017
                 B. P. Prascher, D. E. Woon, K. A. Peterson, T. H. Dunning, Jr., A. K. Wilson, Theor. Chem. Acc. 128, 69 (2011)
         Al-Ar : Obtained from the ccRepo (grant-hill.group.shef.ac.uk/ccrepo) Feb. 2017
                 D. E. Woon, T. H. Dunning, Jr., J. Chem. Phys. 98, 1358 (1993)
            Ca : Obtained from the Peterson Research Group Website (tyr0.chem.wsu.edu/~kipeters) Feb. 2017
                 J. Koput, K. A. Peterson, J. Phys. Chem. 106, 9595 (2002)
         Sc-Zn : Obtained from the ccRepo (grant-hill.group.shef.ac.uk/ccrepo) Feb. 2017
                 N. B. Balabanov, K. A. Peterson, J. Chem. Phys. 123, 064107 (2005)
                 N. B. Balabanov, K. A. Peterson, J. Chem. Phys. 125, 074110 (2006)
         Ga-Kr : Obtained from the ccRepo (grant-hill.group.shef.ac.uk/ccrepo) Feb. 2017
                 A. K. Wilson, D. E. Woon, K. A. Peterson, T. H. Dunning, Jr., J. Chem. Phys. 110, 7667 (1999)

Your calculation utilizes the auxiliary basis: def2/J
   F. Weigend, Phys. Chem. Chem. Phys. 8, 1057 (2006).

================================================================================
                                        WARNINGS
                       Please study these warnings very carefully!
================================================================================

Warning: TCutStore was < 0. Adjusted to Thresh (uncritical)

WARNING: Geometry Optimization
  ===> : Switching off AutoStart
         For restart on a previous wavefunction, please use MOREAD

INFO   : the flag for use of LIBINT has been found!

================================================================================
                                       INPUT FILE
================================================================================
NAME = AT-v/e/frag_16_c00001.com
|  1> %pal nprocs 6 end
|  2> %maxcore 1000
|  3> ! b3lyp TIGHTSCF nopop D3BJ
|  4> ! cc-pvdz def2/J RIJCOSX
|  5> ! Opt
|  6> 
|  7> %geom
|  8> maxiter 60
|  9> TolE 1e-4
| 10> TolRMSG 2e-3
| 11> TolMaxG 3e-3
| 12> TolRMSD 2e-2
| 13> TolMaxD 3e-2
| 14> end
| 15> 
| 16> *xyz 0 1
| 17> C 3.0718 -0.6098 -0.0748
| 18> C 1.6927 -0.6195 -0.0581
| 19> N 1.0131 -1.8322 -0.14
| 20> N 0.963 0.503 0.032
| 21> C 1.66 1.6507 0.1074
| 22> N 2.9941 1.7756 0.1005
| 23> C 3.6764 0.6227 0.0079
| 24> N -1.9532 0.3366 -0.1569
| 25> C -2.4859 -0.871 0.156
| 26> O -1.8037 -1.8441 0.443
| 27> H 3.6496 -1.5193 -0.1602
| 28> H 1.3264 -2.5022 0.5521
| 29> H 0.0026 -1.6927 -0.0369
| 30> H 1.0862 2.568 0.1827
| 31> H 4.7579 0.7187 -0.0027
| 32> H -2.5114 1.1333 -0.426
| 33> H -0.9364 0.4302 -0.1585
| 34> H -3.5872 -0.8836 0.1203
| 35> *
| 36> 
| 37> 
| 38>                          ****END OF INPUT****
================================================================================

                       *****************************
                       * Geometry Optimization Run *
                       *****************************

Geometry optimization settings:
Update method            Update   .... BFGS
Choice of coordinates    CoordSys .... Redundant Internals
Initial Hessian          InHess   .... Almoef's Model

Convergence Tolerances:
Energy Change            TolE     ....  1.0000e-04 Eh
Max. Gradient            TolMAXG  ....  3.0000e-03 Eh/bohr
RMS Gradient             TolRMSG  ....  2.0000e-03 Eh/bohr
Max. Displacement        TolMAXD  ....  3.0000e-02 bohr
RMS Displacement         TolRMSD  ....  2.0000e-02 bohr

------------------------------------------------------------------------------
                        ORCA OPTIMIZATION COORDINATE SETUP
------------------------------------------------------------------------------

The optimization will be done in new redundant internal coordinates
Making redundant internal coordinates   ...  (new redundants) done
Evaluating the initial hessian          ...  (Almloef) done
Evaluating the coordinates              ...  done
Calculating the B-matrix                .... done
Calculating the G-matrix                .... done
Diagonalizing the G-matrix              .... done
The first mode is                       ....   52
The number of degrees of freedom        ....   48

    -----------------------------------------------------------------
                    Redundant Internal Coordinates


    -----------------------------------------------------------------
         Definition                    Initial Value    Approx d2E/dq
    -----------------------------------------------------------------
      1. B(C   1,C   0)                  1.3792         0.650000   
      2. B(N   2,C   1)                  1.3926         0.554372   
      3. B(N   3,C   1)                  1.3419         0.667853   
      4. B(C   4,N   3)                  1.3449         0.660476   
      5. B(N   5,C   4)                  1.3400         0.672550   
      6. B(C   6,N   5)                  1.3429         0.665390   
      7. B(C   6,C   0)                  1.3753         0.659476   
      8. B(C   8,N   7)                  1.3565         0.632984   
      9. B(O   9,C   8)                  1.2226         1.035122   
     10. B(H  10,C   0)                  1.0809         0.372347   
     11. B(H  11,N   2)                  1.0129         0.428051   
     12. B(H  12,N   2)                  1.0253         0.409087   
     13. B(H  12,O   9)                  1.8751         0.018030   
     14. B(H  13,C   4)                  1.0846         0.367316   
     15. B(H  14,C   6)                  1.0858         0.365694   
     16. B(H  15,N   7)                  1.0093         0.433785   
     17. B(H  16,H  12)                  2.3245         0.000740   
     18. B(H  16,N   3)                  1.9103         0.015842   
     19. B(H  16,N   7)                  1.0211         0.415418   
     20. B(H  17,C   8)                  1.1020         0.344633   
     21. A(C   6,C   0,H  10)          121.5888         0.358655   
     22. A(C   1,C   0,C   6)          116.4327         0.442683   
     23. A(C   1,C   0,H  10)          121.9746         0.357773   
     24. A(C   0,C   1,N   3)          122.5934         0.440776   
     25. A(C   0,C   1,N   2)          119.5636         0.426257   
     26. A(N   2,C   1,N   3)          117.8428         0.425539   
     27. A(C   1,N   2,H  12)          110.8908         0.348606   
     28. A(H  11,N   2,H  12)          109.0338         0.300035   
     29. A(C   1,N   2,H  11)          112.6364         0.351282   
     30. A(C   1,N   3,C   4)          115.8370         0.439147   
     31. A(C   4,N   3,H  16)          123.6014         0.218401   
     32. A(C   1,N   3,H  16)          120.1400         0.218726   
     33. A(N   3,C   4,N   5)          126.5308         0.439703   
     34. A(N   3,C   4,H  13)          116.8373         0.355706   
     35. A(N   5,C   4,H  13)          116.6319         0.356802   
     36. A(C   4,N   5,C   6)          115.2268         0.440291   
     37. A(N   5,C   6,H  14)          115.5212         0.355886   
     38. A(C   0,C   6,H  14)          121.0990         0.357557   
     39. A(C   0,C   6,N   5)          123.3792         0.441636   
     40. A(H  15,N   7,H  16)          118.5510         0.301408   
     41. A(C   8,N   7,H  16)          118.2311         0.357447   
     42. A(C   8,N   7,H  15)          123.1636         0.360089   
     43. A(O   9,C   8,H  17)          123.7919         0.380027   
     44. A(N   7,C   8,H  17)          113.2778         0.349368   
     45. A(N   7,C   8,O   9)          122.9299         0.471953   
     46. A(C   8,O   9,H  12)          114.4051         0.236511   
     47. A(N   2,H  12,H  16)          121.1405         0.129462   
     48. A(N   2,H  12,O   9)          164.6181         0.192046   
     49. A(O   9,H  12,H  16)           72.4215         0.108961   
     50. A(N   3,H  16,H  12)           68.1570         0.108385   
     51. A(N   7,H  16,H  12)          108.5699         0.129603   
     52. A(N   3,H  16,N   7)          173.4311         0.189419   
     53. D(N   2,C   1,C   0,H  10)      0.6379         0.029417   
     54. D(N   2,C   1,C   0,C   6)    179.9246         0.029417   
     55. D(N   3,C   1,C   0,C   6)      0.0699         0.029417   
     56. D(N   3,C   1,C   0,H  10)   -179.2168         0.029417   
     57. D(H  12,N   2,C   1,C   0)    175.2274         0.024516   
     58. D(H  11,N   2,C   1,C   0)     52.7226         0.024516   
     59. D(H  11,N   2,C   1,N   3)   -127.4158         0.024516   
     60. D(H  12,N   2,C   1,N   3)     -4.9110         0.024516   
     61. D(H  16,N   3,C   1,N   2)     -7.1131         0.036577   
     62. D(H  16,N   3,C   1,C   0)    172.7440         0.036577   
     63. D(C   4,N   3,C   1,N   2)   -179.9271         0.036577   
     64. D(C   4,N   3,C   1,C   0)     -0.0700         0.036577   
     65. D(H  13,C   4,N   3,C   1)   -179.8859         0.035702   
     66. D(N   5,C   4,N   3,H  16)   -172.5094         0.035702   
     67. D(N   5,C   4,N   3,C   1)      0.0278         0.035702   
     68. D(H  13,C   4,N   3,H  16)      7.5768         0.035702   
     69. D(C   6,N   5,C   4,H  13)    179.9263         0.033624   
     70. D(C   6,N   5,C   4,N   3)      0.0123         0.033624   
     71. D(H  14,C   6,N   5,C   4)    179.7305         0.032850   
     72. D(C   0,C   6,N   5,C   4)     -0.0125         0.032850   
     73. D(H  14,C   6,C   0,C   1)   -179.7553         0.030344   
     74. D(N   5,C   6,C   0,H  10)    179.2636         0.030344   
     75. D(H  14,C   6,C   0,H  10)     -0.4656         0.030344   
     76. D(N   5,C   6,C   0,C   1)     -0.0261         0.030344   
     77. D(H  17,C   8,N   7,H  16)   -179.2612         0.032552   
     78. D(H  17,C   8,N   7,H  15)     -1.9819         0.032552   
     79. D(O   9,C   8,N   7,H  16)      0.4879         0.032552   
     80. D(O   9,C   8,N   7,H  15)    177.7673         0.032552   
     81. D(H  12,O   9,C   8,H  17)    163.4826         0.088722   
     82. D(H  12,O   9,C   8,N   7)    -16.2401         0.088722   
     83. D(O   9,H  12,N   2,C   1)   -137.1120         0.208084   
     84. D(H  16,H  12,O   9,C   8)     14.6700         0.001671   
     85. D(N   2,H  12,O   9,C   8)    167.9908         0.001671   
     86. D(H  16,H  12,N   2,H  11)    137.4555         0.208084   
     87. D(H  16,H  12,N   2,C   1)     12.8819         0.208084   
     88. D(O   9,H  12,N   2,H  11)    -12.5384         0.208084   
     89. D(N   3,H  16,H  12,O   9)    158.4480         0.001506   
     90. D(N   7,H  16,H  12,O   9)    -15.4816         0.001506   
     91. D(N   7,H  16,H  12,N   2)    172.5169         0.001506   
     92. D(H  12,H  16,N   7,H  15)   -165.4730         0.216269   
     93. D(H  12,H  16,N   7,C   8)     11.9343         0.216269   
     94. D(N   3,H  16,N   7,H  15)    135.4302         0.216269   
     95. D(N   3,H  16,N   7,C   8)    -47.1625         0.216269   
     96. D(H  12,H  16,N   3,C   4)   -178.9957         0.001646   
     97. D(H  12,H  16,N   3,C   1)      8.7729         0.001646   
     98. D(N   3,H  16,H  12,N   2)    -13.5535         0.001506   
     99. D(N   7,H  16,N   3,C   4)   -117.7996         0.001646   
    100. D(N   7,H  16,N   3,C   1)     69.9690         0.001646   
    -----------------------------------------------------------------

Number of atoms                         .... 18
Number of degrees of freedom            .... 100

         *************************************************************
         *                GEOMETRY OPTIMIZATION CYCLE   1            *
         *************************************************************
---------------------------------
CARTESIAN COORDINATES (ANGSTROEM)
---------------------------------
  C      3.071800   -0.609800   -0.074800
  C      1.692700   -0.619500   -0.058100
  N      1.013100   -1.832200   -0.140000
  N      0.963000    0.503000    0.032000
  C      1.660000    1.650700    0.107400
  N      2.994100    1.775600    0.100500
  C      3.676400    0.622700    0.007900
  N     -1.953200    0.336600   -0.156900
  C     -2.485900   -0.871000    0.156000
  O     -1.803700   -1.844100    0.443000
  H      3.649600   -1.519300   -0.160200
  H      1.326400   -2.502200    0.552100
  H      0.002600   -1.692700   -0.036900
  H      1.086200    2.568000    0.182700
  H      4.757900    0.718700   -0.002700
  H     -2.511400    1.133300   -0.426000
  H     -0.936400    0.430200   -0.158500
  H     -3.587200   -0.883600    0.120300

----------------------------
CARTESIAN COORDINATES (A.U.)
----------------------------
  NO LB      ZA    FRAG     MASS         X           Y           Z
   0 C     6.0000    0    12.011    5.804861   -1.152355   -0.141352
   1 C     6.0000    0    12.011    3.198739   -1.170685   -0.109793
   2 N     7.0000    0    14.007    1.914482   -3.462356   -0.264562
   3 N     7.0000    0    14.007    1.819806    0.950532    0.060471
   4 C     6.0000    0    12.011    3.136945    3.119371    0.202957
   5 N     7.0000    0    14.007    5.658029    3.355398    0.189917
   6 C     6.0000    0    12.011    6.947389    1.176732    0.014929
   7 N     7.0000    0    14.007   -3.691013    0.636082   -0.296498
   8 C     6.0000    0    12.011   -4.697670   -1.645951    0.294797
   9 O     8.0000    0    15.999   -3.408499   -3.484844    0.837149
  10 H     1.0000    0     1.008    6.896744   -2.871061   -0.302734
  11 H     1.0000    0     1.008    2.506533   -4.728473    1.043318
  12 H     1.0000    0     1.008    0.004913   -3.198739   -0.069731
  13 H     1.0000    0     1.008    2.052621    4.852817    0.345253
  14 H     1.0000    0     1.008    8.991128    1.358146   -0.005102
  15 H     1.0000    0     1.008   -4.745858    2.141627   -0.805023
  16 H     1.0000    0     1.008   -1.769540    0.812960   -0.299522
  17 H     1.0000    0     1.008   -6.778826   -1.669762    0.227334

--------------------------------
INTERNAL COORDINATES (ANGSTROEM)
--------------------------------
 C      0   0   0     0.000000000000     0.00000000     0.00000000
 C      1   0   0     1.379235219243     0.00000000     0.00000000
 N      2   1   0     1.392553431650   119.56357264     0.00000000
 N      2   1   3     1.341859288450   122.59343224   180.14529066
 C      4   2   1     1.344882690051   115.83699764   359.92996593
 N      5   4   2     1.339951652113   126.53078727     0.02784411
 C      6   5   4     1.342865019278   115.22681478     0.00000000
 N      4   2   1     2.927045372043   119.33359641   175.20889044
 C      8   4   2     1.356456213816   115.27625311    23.14712823
 O      9   8   4     1.222574926129   122.92988154   357.01683413
 H      1   2   3     1.080896040330   121.97458555     0.63789426
 H      3   2   1     1.012945852452   112.63641522    52.72264350
 H      3   2   1     1.025280503082   110.89075479   175.22742822
 H      5   4   2     1.084599382261   116.83730960   180.11405127
 H      7   6   5     1.085804130587   115.52122056   179.73047205
 H      8   4   2     1.009323010735   121.55573299   202.40993793
 H      8   4   2     1.021100269317     4.28174854   248.74617764
 H      9   8   4     1.101950516130   113.27775872   177.26771766

---------------------------
INTERNAL COORDINATES (A.U.)
---------------------------
 C      0   0   0     0.000000000000     0.00000000     0.00000000
 C      1   0   0     2.606376838628     0.00000000     0.00000000
 N      2   1   0     2.631544612671   119.56357264     0.00000000
 N      2   1   3     2.535746565429   122.59343224   180.14529066
 C      4   2   1     2.541459966449   115.83699764   359.92996593
 N      5   4   2     2.532141655189   126.53078727     0.02784411
 C      6   5   4     2.537647121258   115.22681478     0.00000000
 N      4   2   1     5.531314134723   119.33359641   175.20889044
 C      8   4   2     2.563330756768   115.27625311    23.14712823
 O      9   8   4     2.310331788583   122.92988154   357.01683413
 H      1   2   3     2.042597495463   121.97458555     0.63789426
 H      3   2   1     1.914190249626   112.63641522    52.72264350
 H      3   2   1     1.937499361274   110.89075479   175.22742822
 H      5   4   2     2.049595797493   116.83730960   180.11405127
 H      7   6   5     2.051872441890   115.52122056   179.73047205
 H      8   4   2     1.907344070955   121.55573299   202.40993793
 H      8   4   2     1.929599864283     4.28174854   248.74617764
 H      9   8   4     2.082384688620   113.27775872   177.26771766

---------------------
BASIS SET INFORMATION
---------------------
There are 4 groups of distinct atoms

 Group   1 Type C   : 17s4p1d contracted to 3s2p1d pattern {881/31/1}
 Group   2 Type N   : 17s4p1d contracted to 3s2p1d pattern {881/31/1}
 Group   3 Type O   : 17s4p1d contracted to 3s2p1d pattern {881/31/1}
 Group   4 Type H   : 4s1p contracted to 2s1p pattern {31/1}

Atom   0C    basis set group =>   1
Atom   1C    basis set group =>   1
Atom   2N    basis set group =>   2
Atom   3N    basis set group =>   2
Atom   4C    basis set group =>   1
Atom   5N    basis set group =>   2
Atom   6C    basis set group =>   1
Atom   7N    basis set group =>   2
Atom   8C    basis set group =>   1
Atom   9O    basis set group =>   3
Atom  10H    basis set group =>   4
Atom  11H    basis set group =>   4
Atom  12H    basis set group =>   4
Atom  13H    basis set group =>   4
Atom  14H    basis set group =>   4
Atom  15H    basis set group =>   4
Atom  16H    basis set group =>   4
Atom  17H    basis set group =>   4
-------------------------------
AUXILIARY BASIS SET INFORMATION
-------------------------------
There are 4 groups of distinct atoms

 Group   1 Type C   : 12s5p4d2f1g contracted to 6s4p3d1f1g pattern {711111/2111/211/2/1}
 Group   2 Type N   : 12s5p4d2f1g contracted to 6s4p3d1f1g pattern {711111/2111/211/2/1}
 Group   3 Type O   : 12s5p4d2f1g contracted to 6s4p3d1f1g pattern {711111/2111/211/2/1}
 Group   4 Type H   : 5s2p1d contracted to 3s1p1d pattern {311/2/1}

Atom   0C    basis set group =>   1
Atom   1C    basis set group =>   1
Atom   2N    basis set group =>   2
Atom   3N    basis set group =>   2
Atom   4C    basis set group =>   1
Atom   5N    basis set group =>   2
Atom   6C    basis set group =>   1
Atom   7N    basis set group =>   2
Atom   8C    basis set group =>   1
Atom   9O    basis set group =>   3
Atom  10H    basis set group =>   4
Atom  11H    basis set group =>   4
Atom  12H    basis set group =>   4
Atom  13H    basis set group =>   4
Atom  14H    basis set group =>   4
Atom  15H    basis set group =>   4
Atom  16H    basis set group =>   4
Atom  17H    basis set group =>   4


           ************************************************************
           *        Program running with 6 parallel MPI-processes     *
           *              working on a common directory               *
           ************************************************************
------------------------------------------------------------------------------
                           ORCA GTO INTEGRAL CALCULATION
                           -- RI-GTO INTEGRALS CHOSEN --
------------------------------------------------------------------------------

                         BASIS SET STATISTICS AND STARTUP INFO

Gaussian basis set:
 # of primitive gaussian shells          ...  260
 # of primitive gaussian functions       ...  396
 # of contracted shells                  ...   84
 # of contracted basis functions         ...  180
 Highest angular momentum                ...    2
 Maximum contraction depth               ...    8
Auxiliary gaussian basis set:
 # of primitive gaussian shells          ...  304
 # of primitive gaussian functions       ...  828
 # of contracted shells                  ...  190
 # of contracted aux-basis functions     ...  578
 Highest angular momentum                ...    4
 Maximum contraction depth               ...    7
Ratio of auxiliary to basis functions    ...  3.21
Integral package used                  ... LIBINT
 One Electron integrals                  ... done
 Ordering auxiliary basis shells         ... done
 Integral threshhold             Thresh  ...  2.500e-11
 Primitive cut-off               TCut    ...  2.500e-12
 Pre-screening matrix                    ... done
 Shell pair data                         ... 
 Ordering of the shell pairs             ... done (   0.001 sec) 3263 of 3570 pairs
 Determination of significant pairs      ... done (   0.000 sec)
 Creation of shell pair data             ... done (   0.002 sec)
 Storage of shell pair data              ... done (   0.003 sec)
 Shell pair data done in (   0.005 sec)
 Computing two index integrals           ... done
 Cholesky decomposition of the V-matrix  ... done


Timings:
 Total evaluation time                   ...   0.421 sec (  0.007 min)
 One electron matrix time                ...   0.049 sec (  0.001 min) = 11.6%
 Schwartz matrix evaluation time         ...   0.289 sec (  0.005 min) = 68.7%
 Two index repulsion integral time       ...   0.043 sec (  0.001 min) = 10.2%
 Cholesky decomposition of V             ...   0.012 sec (  0.000 min) =  2.9%
 Three index repulsion integral time     ...   0.000 sec (  0.000 min) =  0.0%



           ************************************************************
           *        Program running with 6 parallel MPI-processes     *
           *              working on a common directory               *
           ************************************************************
-------------------------------------------------------------------------------
                                 ORCA SCF
-------------------------------------------------------------------------------

------------
SCF SETTINGS
------------
Hamiltonian:
 Density Functional     Method          .... DFT(GTOs)
 Exchange Functional    Exchange        .... B88
   X-Alpha parameter    XAlpha          ....  0.666667
   Becke's b parameter  XBeta           ....  0.004200
 Correlation Functional Correlation     .... LYP
 LDA part of GGA corr.  LDAOpt          .... VWN-5
 Gradients option       PostSCFGGA      .... off
 Hybrid DFT is turned on
   Fraction HF Exchange ScalHFX         ....  0.200000
   Scaling of DF-GGA-X  ScalDFX         ....  0.720000
   Scaling of DF-GGA-C  ScalDFC         ....  0.810000
   Scaling of DF-LDA-C  ScalLDAC        ....  1.000000
   Perturbative correction              ....  0.000000
   NL short-range parameter             ....  4.800000
 RI-approximation to the Coulomb term is turned on
   Number of auxiliary basis functions  .... 578
   RIJ-COSX (HFX calculated with COS-X)).... on


General Settings:
 Integral files         IntName         .... AT-v/e/frag_16_c00001
 Hartree-Fock type      HFTyp           .... RHF
 Total Charge           Charge          ....    0
 Multiplicity           Mult            ....    1
 Number of Electrons    NEL             ....   74
 Basis Dimension        Dim             ....  180
 Nuclear Repulsion      ENuc            ....    498.0913212171 Eh

Convergence Acceleration:
 DIIS                   CNVDIIS         .... on
   Start iteration      DIISMaxIt       ....    12
   Startup error        DIISStart       ....  0.200000
   # of expansion vecs  DIISMaxEq       ....     5
   Bias factor          DIISBfac        ....   1.050
   Max. coefficient     DIISMaxC        ....  10.000
 Newton-Raphson         CNVNR           .... off
 SOSCF                  CNVSOSCF        .... on
   Start iteration      SOSCFMaxIt      ....   150
   Startup grad/error   SOSCFStart      ....  0.003300
 Level Shifting         CNVShift        .... on
   Level shift para.    LevelShift      ....    0.2500
   Turn off err/grad.   ShiftErr        ....    0.0010
 Zerner damping         CNVZerner       .... off
 Static damping         CNVDamp         .... on
   Fraction old density DampFac         ....    0.7000
   Max. Damping (<1)    DampMax         ....    0.9800
   Min. Damping (>=0)   DampMin         ....    0.0000
   Turn off err/grad.   DampErr         ....    0.1000
 Fernandez-Rico         CNVRico         .... off

SCF Procedure:
 Maximum # iterations   MaxIter         ....   125
 SCF integral mode      SCFMode         .... Direct
   Integral package                     .... LIBINT
 Reset frequeny         DirectResetFreq ....    20
 Integral Threshold     Thresh          ....  2.500e-11 Eh
 Primitive CutOff       TCut            ....  2.500e-12 Eh

Convergence Tolerance:
 Convergence Check Mode ConvCheckMode   .... Total+1el-Energy
 Convergence forced     ConvForced      .... 0
 Energy Change          TolE            ....  1.000e-08 Eh
 1-El. energy change                    ....  1.000e-05 Eh
 Orbital Gradient       TolG            ....  1.000e-05
 Orbital Rotation angle TolX            ....  1.000e-05
 DIIS Error             TolErr          ....  5.000e-07


Diagonalization of the overlap matrix:
Smallest eigenvalue                        ... 1.149e-03
Time for diagonalization                   ...    0.008 sec
Threshold for overlap eigenvalues          ... 1.000e-08
Number of eigenvalues below threshold      ... 0
Time for construction of square roots      ...    0.004 sec
Total time needed                          ...    0.012 sec

-------------------
DFT GRID GENERATION
-------------------

General Integration Accuracy     IntAcc      ...  4.340
Radial Grid Type                 RadialGrid  ... Gauss-Chebyshev
Angular Grid (max. acc.)         AngularGrid ... Lebedev-110
Angular grid pruning method      GridPruning ... 3 (G Style)
Weight generation scheme         WeightScheme... Becke
Basis function cutoff            BFCut       ...    1.0000e-11
Integration weight cutoff        WCut        ...    1.0000e-14
Grids for H and He will be reduced by one unit

# of grid points (after initial pruning)     ...  23156 (   0.0 sec)
# of grid points (after weights+screening)   ...  21530 (   0.0 sec)
nearest neighbour list constructed           ...    0.0 sec
Grid point re-assignment to atoms done       ...    0.0 sec
Grid point division into batches done        ...    0.0 sec
Reduced shell lists constructed in    0.1 sec

Total number of grid points                  ...    21530
Total number of batches                      ...      346
Average number of points per batch           ...       62
Average number of grid points per atom       ...     1196
Average number of shells per batch           ...    67.59 (80.47%)
Average number of basis functions per batch  ...   141.83 (78.79%)
Average number of large shells per batch     ...    52.25 (77.31%)
Average number of large basis fcns per batch ...   110.32 (77.78%)
Maximum spatial batch extension              ...   6.68, 13.95, 19.83 au
Average spatial batch extension              ...   0.32,  0.36,  0.56 au

Time for grid setup =    0.120 sec

------------------------------
INITIAL GUESS: MODEL POTENTIAL
------------------------------
Loading Hartree-Fock densities                     ... done
Calculating cut-offs                               ... done
Setting up the integral package                    ... done
Initializing the effective Hamiltonian             ... done
Starting the Coulomb interaction                   ... done (   0.1 sec)
Reading the grid                                   ... done
Mapping shells                                     ... done
Starting the XC term evaluation                    ... done (   0.1 sec)
  promolecular density results
     # of electrons  =     74.016348771
     EX              =    -62.576425390
     EC              =     -2.534179793
     EX+EC           =    -65.110605183
Transforming the Hamiltonian                       ... done (   0.0 sec)
Diagonalizing the Hamiltonian                      ... done (   0.0 sec)
Back transforming the eigenvectors                 ... done (   0.0 sec)
Now organizing SCF variables                       ... done
                      ------------------
                      INITIAL GUESS DONE (   0.4 sec)
                      ------------------
--------------------
COSX GRID GENERATION
--------------------

General Integration Accuracy     IntAcc      ...  3.340
Radial Grid Type                 RadialGrid  ... Gauss-Chebyshev
Angular Grid (max. acc.)         AngularGrid ... Lebedev-50
Angular grid pruning method      GridPruning ... 3 (G Style)
Weight generation scheme         WeightScheme... Becke
Basis function cutoff            BFCut       ...    1.0000e-11
Integration weight cutoff        WCut        ...    1.0000e-14
Grids for H and He will be reduced by one unit

# of grid points (after initial pruning)     ...   8304 (   0.0 sec)
# of grid points (after weights+screening)   ...   7785 (   0.0 sec)
nearest neighbour list constructed           ...    0.0 sec
Grid point re-assignment to atoms done       ...    0.0 sec
Grid point division into batches done        ...    0.0 sec
Reduced shell lists constructed in    0.0 sec

Total number of grid points                  ...     7785
Total number of batches                      ...      130
Average number of points per batch           ...       59
Average number of grid points per atom       ...      432
Average number of shells per batch           ...    68.13 (81.11%)
Average number of basis functions per batch  ...   143.61 (79.78%)
Average number of large shells per batch     ...    53.09 (77.92%)
Average number of large basis fcns per batch ...   111.78 (77.84%)
Maximum spatial batch extension              ...   4.53, 12.19, 18.55 au
Average spatial batch extension              ...   0.38,  0.48,  0.79 au

Overlap Fitting                  UseSFitting ... on
Constructing numerical overlap ... done (      0.0 sec)
Inverting numerical overlap    ... done (      0.0 sec)
Obtaining analytic overlap     ... done (      0.0 sec)
Final contraction and storage  ... done (      0.0 sec)


General Integration Accuracy     IntAcc      ...  3.670
Radial Grid Type                 RadialGrid  ... Gauss-Chebyshev
Angular Grid (max. acc.)         AngularGrid ... Lebedev-50
Angular grid pruning method      GridPruning ... 3 (G Style)
Weight generation scheme         WeightScheme... Becke
Basis function cutoff            BFCut       ...    1.0000e-11
Integration weight cutoff        WCut        ...    1.0000e-14
Grids for H and He will be reduced by one unit

# of grid points (after initial pruning)     ...  10572 (   0.0 sec)
# of grid points (after weights+screening)   ...   9894 (   0.0 sec)
nearest neighbour list constructed           ...    0.0 sec
Grid point re-assignment to atoms done       ...    0.0 sec
Grid point division into batches done        ...    0.0 sec
Reduced shell lists constructed in    0.0 sec

Total number of grid points                  ...     9894
Total number of batches                      ...      164
Average number of points per batch           ...       60
Average number of grid points per atom       ...      550
Average number of shells per batch           ...    68.97 (82.10%)
Average number of basis functions per batch  ...   145.38 (80.77%)
Average number of large shells per batch     ...    53.03 (76.90%)
Average number of large basis fcns per batch ...   111.24 (76.52%)
Maximum spatial batch extension              ...   5.26, 11.84, 20.23 au
Average spatial batch extension              ...   0.38,  0.44,  0.71 au

Overlap Fitting                  UseSFitting ... on
Constructing numerical overlap ... done (      0.0 sec)
Inverting numerical overlap    ... done (      0.0 sec)
Obtaining analytic overlap     ... done (      0.0 sec)
Final contraction and storage  ... done (      0.0 sec)


General Integration Accuracy     IntAcc      ...  4.010
Radial Grid Type                 RadialGrid  ... Gauss-Chebyshev
Angular Grid (max. acc.)         AngularGrid ... Lebedev-110
Angular grid pruning method      GridPruning ... 3 (G Style)
Weight generation scheme         WeightScheme... Becke
Basis function cutoff            BFCut       ...    1.0000e-11
Integration weight cutoff        WCut        ...    1.0000e-14
Grids for H and He will be reduced by one unit

# of grid points (after initial pruning)     ...  19978 (   0.0 sec)
# of grid points (after weights+screening)   ...  18612 (   0.0 sec)
nearest neighbour list constructed           ...    0.0 sec
Grid point re-assignment to atoms done       ...    0.0 sec
Grid point division into batches done        ...    0.0 sec
Reduced shell lists constructed in    0.1 sec

Total number of grid points                  ...    18612
Total number of batches                      ...      300
Average number of points per batch           ...       62
Average number of grid points per atom       ...     1034
Average number of shells per batch           ...    67.43 (80.28%)
Average number of basis functions per batch  ...   141.75 (78.75%)
Average number of large shells per batch     ...    52.37 (77.67%)
Average number of large basis fcns per batch ...   110.25 (77.78%)
Maximum spatial batch extension              ...   6.33, 13.47, 22.60 au
Average spatial batch extension              ...   0.33,  0.36,  0.62 au

Overlap Fitting                  UseSFitting ... on
Constructing numerical overlap ... done (      0.0 sec)
Inverting numerical overlap    ... done (      0.0 sec)
Obtaining analytic overlap     ... done (      0.0 sec)
Final contraction and storage  ... done (      0.0 sec)

Time for X-Grid setup             =    0.349 sec
--------------
SCF ITERATIONS
--------------
ITER       Energy         Delta-E        Max-DP      RMS-DP      [F,P]     Damp
               ***  Starting incremental Fock matrix formation  ***
  0   -489.0211786641   0.000000000000 0.09304159  0.00237917  0.2682313 0.7000
  1   -489.1816470625  -0.160468398472 0.05287234  0.00159028  0.1141104 0.7000
                               ***Turning on DIIS***
  2   -489.2413639281  -0.059716865609 0.07234020  0.00241507  0.0415657 0.0000
  3   -489.3363405491  -0.094976620998 0.03485780  0.00108355  0.0595122 0.0000
  4   -489.3572464547  -0.020905905578 0.00847939  0.00033679  0.0121175 0.0000
  5   -489.3584996174  -0.001253162733 0.00449275  0.00011717  0.0066722 0.0000
                      *** Initiating the SOSCF procedure ***
                           *** Shutting down DIIS ***
                      *** Re-Reading the Fockian *** 
                      *** Removing any level shift *** 
ITER      Energy       Delta-E        Grad      Rot      Max-DP    RMS-DP
  6   -489.35860139  -0.0001017685  0.000535  0.000535  0.001208  0.000038
               *** Restarting incremental Fock matrix formation ***
  7   -489.35862009  -0.0000187017  0.000194  0.000595  0.000937  0.000027
  8   -489.35862068  -0.0000005955  0.000193  0.000410  0.000458  0.000011
  9   -489.35862152  -0.0000008359  0.000097  0.000205  0.000212  0.000007
 10   -489.35862149   0.0000000324  0.000065  0.000127  0.000088  0.000003
 11   -489.35862164  -0.0000001550  0.000017  0.000046  0.000068  0.000002
 12   -489.35862164   0.0000000049  0.000016  0.000021  0.000033  0.000001
 13   -489.35862165  -0.0000000178  0.000005  0.000014  0.000013  0.000000
 14   -489.35862166  -0.0000000018  0.000006  0.000008  0.000010  0.000000
                  ***Gradient check signals convergence***
              ***Rediagonalizing the Fockian in SOSCF/NRSCF***

               *****************************************************
               *                     SUCCESS                       *
               *           SCF CONVERGED AFTER  15 CYCLES          *
               *****************************************************

Setting up the final grid:

General Integration Accuracy     IntAcc      ...  4.670
Radial Grid Type                 RadialGrid  ... Gauss-Chebyshev
Angular Grid (max. acc.)         AngularGrid ... Lebedev-302
Angular grid pruning method      GridPruning ... 3 (G Style)
Weight generation scheme         WeightScheme... Becke
Basis function cutoff            BFCut       ...    1.0000e-11
Integration weight cutoff        WCut        ...    1.0000e-14
Grids for H and He will be reduced by one unit

# of grid points (after initial pruning)     ...  89272 (   0.0 sec)
# of grid points (after weights+screening)   ...  81763 (   0.1 sec)
nearest neighbour list constructed           ...    0.0 sec
Grid point re-assignment to atoms done       ...    0.0 sec
Grid point division into batches done        ...    0.4 sec
Reduced shell lists constructed in    0.6 sec

Total number of grid points                  ...    81763
Total number of batches                      ...     1288
Average number of points per batch           ...       63
Average number of grid points per atom       ...     4542
Average number of shells per batch           ...    64.40 (76.66%)
Average number of basis functions per batch  ...   134.99 (74.99%)
Average number of large shells per batch     ...    48.74 (75.68%)
Average number of large basis fcns per batch ...   102.49 (75.92%)
Maximum spatial batch extension              ...   7.29, 10.96, 16.94 au
Average spatial batch extension              ...   0.23,  0.24,  0.30 au

Final grid set up in    0.7 sec
Final integration                            ... done (   0.4 sec)
Change in XC energy                          ...     0.000195482
Integrated number of electrons               ...    74.000019111
Previous integrated no of electrons          ...    74.007818127
Old exchange energy                            =    -12.695260867 Eh
New exchange energy                            =    -12.694906693 Eh
Exchange energy change after final integration =      0.000354174 Eh
Total energy after final integration           =   -489.358071998 Eh
Final COS-X integration done in                =     2.632 sec

----------------
TOTAL SCF ENERGY
----------------

Total Energy       :         -489.35807200 Eh          -13316.11012 eV

Components:
Nuclear Repulsion  :          498.09132122 Eh           13553.75391 eV
Electronic Energy  :         -987.44939322 Eh          -26869.86403 eV
One Electron Energy:        -1652.25320746 Eh          -44960.09550 eV
Two Electron Energy:          664.80381424 Eh           18090.23148 eV

Virial components:
Potential Energy   :         -975.97349208 Eh          -26557.58888 eV
Kinetic Energy     :          486.61542008 Eh           13241.47876 eV
Virial Ratio       :            2.00563618


DFT components:
N(Alpha)           :       37.000009555637 electrons
N(Beta)            :       37.000009555637 electrons
N(Total)           :       74.000019111273 electrons
E(X)               :      -50.486262899145 Eh       
E(C)               :       -2.990590684298 Eh       
E(XC)              :      -53.476853583442 Eh       

---------------
SCF CONVERGENCE
---------------

  Last Energy change         ...    1.9156e-09  Tolerance :   1.0000e-08
  Last MAX-Density change    ...    1.3344e-13  Tolerance :   1.0000e-07
  Last RMS-Density change    ...    8.7817e-16  Tolerance :   5.0000e-09
  Last Orbital Gradient      ...    4.3739e-07  Tolerance :   1.0000e-05
  Last Orbital Rotation      ...    1.3965e-06  Tolerance :   1.0000e-05

             **** THE GBW FILE WAS UPDATED (AT-v/e/frag_16_c00001.gbw) ****
             **** DENSITY FILE WAS UPDATED (AT-v/e/frag_16_c00001.scfp.tmp) ****
             **** ENERGY FILE WAS UPDATED (AT-v/e/frag_16_c00001.en.tmp) ****
----------------
ORBITAL ENERGIES
----------------

  NO   OCC          E(Eh)            E(eV) 
   0   2.0000     -19.110616      -520.0263 
   1   2.0000     -14.338742      -390.1770 
   2   2.0000     -14.336262      -390.1095 
   3   2.0000     -14.323438      -389.7606 
   4   2.0000     -14.322781      -389.7427 
   5   2.0000     -10.286483      -279.9094 
   6   2.0000     -10.267061      -279.3809 
   7   2.0000     -10.256191      -279.0851 
   8   2.0000     -10.232570      -278.4424 
   9   2.0000     -10.193368      -277.3756 
  10   2.0000      -1.034902       -28.1611 
  11   2.0000      -0.992110       -26.9967 
  12   2.0000      -0.919001       -25.0073 
  13   2.0000      -0.894694       -24.3459 
  14   2.0000      -0.863135       -23.4871 
  15   2.0000      -0.781961       -21.2782 
  16   2.0000      -0.662021       -18.0145 
  17   2.0000      -0.640620       -17.4321 
  18   2.0000      -0.615893       -16.7593 
  19   2.0000      -0.546305       -14.8657 
  20   2.0000      -0.535375       -14.5683 
  21   2.0000      -0.532115       -14.4796 
  22   2.0000      -0.479342       -13.0435 
  23   2.0000      -0.468897       -12.7593 
  24   2.0000      -0.465570       -12.6688 
  25   2.0000      -0.438756       -11.9391 
  26   2.0000      -0.427157       -11.6235 
  27   2.0000      -0.409641       -11.1469 
  28   2.0000      -0.403991       -10.9932 
  29   2.0000      -0.398013       -10.8305 
  30   2.0000      -0.338517        -9.2115 
  31   2.0000      -0.309481        -8.4214 
  32   2.0000      -0.298494        -8.1224 
  33   2.0000      -0.265396        -7.2218 
  34   2.0000      -0.264683        -7.2024 
  35   2.0000      -0.251314        -6.8386 
  36   2.0000      -0.238341        -6.4856 
  37   0.0000      -0.032619        -0.8876 
  38   0.0000      -0.015642        -0.4256 
  39   0.0000       0.026392         0.7182 
  40   0.0000       0.061012         1.6602 
  41   0.0000       0.073902         2.0110 
  42   0.0000       0.086122         2.3435 
  43   0.0000       0.098242         2.6733 
  44   0.0000       0.122589         3.3358 
  45   0.0000       0.131535         3.5793 
  46   0.0000       0.144346         3.9278 
  47   0.0000       0.192613         5.2413 
  48   0.0000       0.201965         5.4958 
  49   0.0000       0.214961         5.8494 
  50   0.0000       0.269041         7.3210 
  51   0.0000       0.278338         7.5740 
  52   0.0000       0.304131         8.2758 
  53   0.0000       0.330410         8.9909 
  54   0.0000       0.337945         9.1960 
  55   0.0000       0.355724         9.6797 
  56   0.0000       0.379274        10.3206 
  57   0.0000       0.389064        10.5870 
  58   0.0000       0.444352        12.0914 
  59   0.0000       0.457432        12.4474 
  60   0.0000       0.468692        12.7537 
  61   0.0000       0.474248        12.9050 
  62   0.0000       0.480400        13.0723 
  63   0.0000       0.491403        13.3718 
  64   0.0000       0.506271        13.7763 
  65   0.0000       0.511112        13.9081 
  66   0.0000       0.526552        14.3282 
  67   0.0000       0.535463        14.5707 
  68   0.0000       0.549544        14.9539 
  69   0.0000       0.574530        15.6337 
  70   0.0000       0.583761        15.8850 
  71   0.0000       0.590358        16.0644 
  72   0.0000       0.596623        16.2349 
  73   0.0000       0.643423        17.5084 
  74   0.0000       0.647559        17.6210 
  75   0.0000       0.660116        17.9627 
  76   0.0000       0.693966        18.8838 
  77   0.0000       0.700483        19.0611 
  78   0.0000       0.718058        19.5394 
  79   0.0000       0.736138        20.0313 
  80   0.0000       0.745366        20.2824 
  81   0.0000       0.766448        20.8561 
  82   0.0000       0.784195        21.3390 
  83   0.0000       0.818471        22.2717 
  84   0.0000       0.847993        23.0751 
  85   0.0000       0.860500        23.4154 
  86   0.0000       0.872070        23.7302 
  87   0.0000       0.881877        23.9971 
  88   0.0000       0.901370        24.5275 
  89   0.0000       0.916173        24.9303 
  90   0.0000       0.918917        25.0050 
  91   0.0000       0.944913        25.7124 
  92   0.0000       0.967871        26.3371 
  93   0.0000       0.970019        26.3956 
  94   0.0000       1.003004        27.2931 
  95   0.0000       1.026303        27.9271 
  96   0.0000       1.048038        28.5186 
  97   0.0000       1.054369        28.6909 
  98   0.0000       1.063627        28.9428 
  99   0.0000       1.080322        29.3971 
 100   0.0000       1.096277        29.8312 
 101   0.0000       1.122831        30.5538 
 102   0.0000       1.155667        31.4473 
 103   0.0000       1.166416        31.7398 
 104   0.0000       1.170298        31.8454 
 105   0.0000       1.201108        32.6838 
 106   0.0000       1.228122        33.4189 
 107   0.0000       1.254662        34.1411 
 108   0.0000       1.261418        34.3249 
 109   0.0000       1.296927        35.2912 
 110   0.0000       1.319519        35.9059 
 111   0.0000       1.368665        37.2433 
 112   0.0000       1.393478        37.9185 
 113   0.0000       1.412385        38.4329 
 114   0.0000       1.448386        39.4126 
 115   0.0000       1.486050        40.4375 
 116   0.0000       1.493558        40.6418 
 117   0.0000       1.507849        41.0307 
 118   0.0000       1.513450        41.1831 
 119   0.0000       1.551433        42.2166 
 120   0.0000       1.583978        43.1022 
 121   0.0000       1.614811        43.9412 
 122   0.0000       1.627675        44.2913 
 123   0.0000       1.637849        44.5681 
 124   0.0000       1.657937        45.1148 
 125   0.0000       1.668981        45.4153 
 126   0.0000       1.671639        45.4876 
 127   0.0000       1.679410        45.6991 
 128   0.0000       1.697183        46.1827 
 129   0.0000       1.710622        46.5484 
 130   0.0000       1.717929        46.7472 
 131   0.0000       1.725555        46.9547 
 132   0.0000       1.772150        48.2227 
 133   0.0000       1.782477        48.5037 
 134   0.0000       1.798000        48.9261 
 135   0.0000       1.810888        49.2768 
 136   0.0000       1.854582        50.4658 
 137   0.0000       1.895040        51.5667 
 138   0.0000       1.923782        52.3488 
 139   0.0000       1.941450        52.8295 
 140   0.0000       1.958830        53.3025 
 141   0.0000       1.995101        54.2895 
 142   0.0000       2.082774        56.6752 
 143   0.0000       2.092052        56.9276 
 144   0.0000       2.113236        57.5041 
 145   0.0000       2.130393        57.9709 
 146   0.0000       2.158547        58.7371 
 147   0.0000       2.170665        59.0668 
 148   0.0000       2.177102        59.2419 
 149   0.0000       2.186996        59.5112 
 150   0.0000       2.223402        60.5018 
 151   0.0000       2.241228        60.9869 
 152   0.0000       2.289542        62.3016 
 153   0.0000       2.310222        62.8643 
 154   0.0000       2.326711        63.3130 
 155   0.0000       2.397964        65.2519 
 156   0.0000       2.409637        65.5696 
 157   0.0000       2.473638        67.3111 
 158   0.0000       2.496624        67.9366 
 159   0.0000       2.502808        68.1049 
 160   0.0000       2.544773        69.2468 
 161   0.0000       2.582824        70.2822 
 162   0.0000       2.592573        70.5475 
 163   0.0000       2.620729        71.3137 
 164   0.0000       2.643022        71.9203 
 165   0.0000       2.693536        73.2948 
 166   0.0000       2.728590        74.2487 
 167   0.0000       2.764178        75.2171 
 168   0.0000       2.790873        75.9435 
 169   0.0000       2.836813        77.1936 
 170   0.0000       2.876021        78.2605 
 171   0.0000       2.907540        79.1182 
 172   0.0000       2.936173        79.8973 
 173   0.0000       2.951620        80.3177 
 174   0.0000       3.087218        84.0075 
 175   0.0000       3.130069        85.1735 
 176   0.0000       3.176188        86.4285 
 177   0.0000       3.428800        93.3024 
 178   0.0000       3.478339        94.6504 
 179   0.0000       3.537579        96.2624 
-------
TIMINGS
-------

Total SCF time: 0 days 0 hours 0 min 28 sec 

Total time                  ....      28.254 sec
Sum of individual times     ....      28.165 sec  ( 99.7%)

Fock matrix formation       ....      26.440 sec  ( 93.6%)
  Split-RI-J                ....       4.481 sec  ( 16.9% of F)
  Chain of spheres X        ....      20.053 sec  ( 75.8% of F)
  COS-X 1 center corr.      ....       0.000 sec  (  0.0% of F)
  XC integration            ....       1.825 sec  (  6.9% of F)
    Basis function eval.    ....       0.675 sec  ( 37.0% of XC)
    Density eval.           ....       0.301 sec  ( 16.5% of XC)
    XC-Functional eval.     ....       0.075 sec  (  4.1% of XC)
    XC-Potential eval.      ....       0.590 sec  ( 32.3% of XC)
Diagonalization             ....       0.078 sec  (  0.3%)
Density matrix formation    ....       0.011 sec  (  0.0%)
Population analysis         ....       0.000 sec  (  0.0%)
Initial guess               ....       0.300 sec  (  1.1%)
Orbital Transformation      ....       0.000 sec  (  0.0%)
Orbital Orthonormalization  ....       0.000 sec  (  0.0%)
DIIS solution               ....       0.022 sec  (  0.1%)
SOSCF solution              ....       0.154 sec  (  0.5%)
Grid generation             ....       1.160 sec  (  4.1%)


-------------------------------------------------------------------------------
                          DFT DISPERSION CORRECTION                            
                                                                               
                              DFTD3 V3.1  Rev 1                                
                          USING Becke-Johnson damping                          
-------------------------------------------------------------------------------
The B3LYP functional is recognized
Active option DFTDOPT                   ...         4   

molecular C6(AA) [au] = 3505.898158 


            DFT-D V3
 parameters
 s6 scaling factor         :     1.0000 
 a1 scaling factor         :     0.3981 
 s8 scaling factor         :     1.9889 
 a2 scaling factor         :     4.4211 
 ad hoc parameters k1-k3   :    16.0000     1.3333    -4.0000 

 Edisp/kcal,au: -18.003213502484  -0.028689943859 
 E6   /kcal   :  -8.687126069 
 E8   /kcal   :  -9.316087434 
 % E8         :  51.746803051 

-------------------------   ----------------
Dispersion correction           -0.028689944
-------------------------   ----------------


-------------------------   --------------------
FINAL SINGLE POINT ENERGY      -489.386761941911
-------------------------   --------------------



           ************************************************************
           *        Program running with 6 parallel MPI-processes     *
           *              working on a common directory               *
           ************************************************************
------------------------------------------------------------------------------
                         ORCA SCF GRADIENT CALCULATION
------------------------------------------------------------------------------

Gradient of the Kohn-Sham DFT energy:
Kohn-Sham wavefunction type      ... RKS
Hartree-Fock exchange scaling    ...    0.200
Number of operators              ...    1
Number of atoms                  ...   18
Basis set dimensions             ...  180
Integral neglect threshold       ... 2.5e-11
Integral primitive cutoff        ... 2.5e-12

Nuclear repulsion gradient       ... done
One Electron Gradient            ... done
Pre-screening matrix             ... done
RI-J gradient                    ... done
COSX-gradient                    ... done
Exchange-correlation gradient    ... done
Dispersion correction            ... done

------------------
CARTESIAN GRADIENT
------------------

   1   C   :   -0.020186974   -0.007232330   -0.001338511
   2   C   :    0.027410343    0.030123336   -0.004044240
   3   N   :    0.001076888   -0.017539772    0.001706658
   4   N   :   -0.003624070   -0.014140475    0.003933263
   5   C   :   -0.011599181    0.011615656    0.003997973
   6   N   :    0.009367125   -0.007444914   -0.002094409
   7   C   :   -0.002184756   -0.005292606   -0.000820358
   8   N   :    0.008679971    0.006761445   -0.001017461
   9   C   :   -0.010174930   -0.020301016    0.005689686
  10   O   :    0.003064258    0.009198273   -0.001385551
  11   H   :   -0.002209516    0.006351420    0.000746932
  12   H   :   -0.004820844    0.006337420    0.001301568
  13   H   :    0.003604077    0.006066080   -0.003273397
  14   H   :    0.004749034   -0.005430435   -0.000405375
  15   H   :   -0.007260833   -0.000045892    0.000095287
  16   H   :    0.005270429    0.000920130   -0.000117372
  17   H   :   -0.009284733   -0.003001557   -0.001814718
  18   H   :    0.008412190    0.003601180   -0.001585872

Difference to translation invariance:
           :    0.0002884789    0.0005459431   -0.0004258955

Norm of the cartesian gradient     ...    0.0663264956
RMS gradient                       ...    0.0090258928
MAX gradient                       ...    0.0301233358

-------
TIMINGS
-------

Total SCF gradient time            ...        5.777 sec

One electron gradient       ....       0.104 sec  (  1.8%)
Prescreening matrices       ....       0.142 sec  (  2.5%)
RI-J Coulomb gradient       ....       0.918 sec  ( 15.9%)
COSX gradient               ....       2.659 sec  ( 46.0%)
XC gradient                 ....       1.422 sec  ( 24.6%)
------------------------------------------------------------------------------
                         ORCA GEOMETRY RELAXATION STEP
------------------------------------------------------------------------------

Reading the OPT-File                    .... done
Getting information on internals        .... done
Copying old internal coords+grads       .... done
Making the new internal coordinates     .... (new redundants).... done
Validating the new internal coordinates .... (new redundants).... done
Calculating the B-matrix                .... done
Calculating the G,G- and P matrices     .... done
Transforming gradient to internals      .... done
Projecting the internal gradient        .... done
Number of atoms                         ....  18
Number of internal coordinates          .... 100
Current Energy                          ....  -489.386761942 Eh
Current gradient norm                   ....     0.066326496 Eh/bohr
Maximum allowed component of the step   ....  0.300
Current trust radius                    ....  0.300
Evaluating the initial hessian          ....  (Almloef) done
Projecting the Hessian                  .... done
Forming the augmented Hessian           .... done
Diagonalizing the augmented Hessian     .... done
Last element of RFO vector              ....  0.971427080
Lowest eigenvalues of augmented Hessian:
 -0.006126371  0.020718791  0.022913693  0.025945765  0.029869028
Length of the computed step             ....  0.244319125
The final length of the internal step   ....  0.244319125
Converting the step to cartesian space:
 Initial RMS(Int)=    0.0244319125
Transforming coordinates:
 Iter   0:  RMS(Cart)=    0.0505120410 RMS(Int)=    0.0244550489
 Iter   1:  RMS(Cart)=    0.0006840906 RMS(Int)=    0.0005037345
 Iter   2:  RMS(Cart)=    0.0000203288 RMS(Int)=    0.0000192108
 Iter   3:  RMS(Cart)=    0.0000007382 RMS(Int)=    0.0000015494
 Iter   4:  RMS(Cart)=    0.0000000341 RMS(Int)=    0.0000001257
done
Storing new coordinates                 .... done

                                .--------------------.
          ----------------------|Geometry convergence|-------------------------
          Item                value                   Tolerance       Converged
          ---------------------------------------------------------------------
          RMS gradient        0.0047667496            0.0020000000      NO
          MAX gradient        0.0282189066            0.0030000000      NO
          RMS step            0.0244319125            0.0200000000      NO
          MAX step            0.1033976823            0.0300000000      NO
          ........................................................
          Max(Bonds)      0.0547      Max(Angles)    1.59
          Max(Dihed)        4.08      Max(Improp)    0.00
          ---------------------------------------------------------------------

The optimization has not yet converged - more geometry cycles are needed


    ---------------------------------------------------------------------------
                         Redundant Internal Coordinates
                            (Angstroem and degrees)

        Definition                    Value    dE/dq     Step     New-Value
    ----------------------------------------------------------------------------
     1. B(C   1,C   0)                1.3792 -0.028219  0.0235    1.4028   
     2. B(N   2,C   1)                1.3926  0.005163 -0.0035    1.3890   
     3. B(N   3,C   1)                1.3419 -0.008489  0.0075    1.3494   
     4. B(C   4,N   3)                1.3449  0.001673 -0.0020    1.3429   
     5. B(N   5,C   4)                1.3400  0.005307 -0.0049    1.3350   
     6. B(C   6,N   5)                1.3429 -0.005316  0.0041    1.3469   
     7. B(C   6,C   0)                1.3753 -0.011097  0.0095    1.3848   
     8. B(C   8,N   7)                1.3565  0.008271 -0.0054    1.3511   
     9. B(O   9,C   8)                1.2226 -0.007549  0.0044    1.2270   
    10. B(H  10,C   0)                1.0809 -0.006527  0.0091    1.0900   
    11. B(H  11,N   2)                1.0129 -0.004777  0.0058    1.0188   
    12. B(H  12,N   2)                1.0253 -0.006323  0.0083    1.0336   
    13. B(H  12,O   9)                1.8751 -0.003138  0.0547    1.9298   
    14. B(H  13,C   4)                1.0846 -0.007192  0.0102    1.0948   
    15. B(H  14,C   6)                1.0858 -0.007243  0.0103    1.0961   
    16. B(H  15,N   7)                1.0093 -0.002122  0.0026    1.0119   
    17. B(H  16,H  12)                2.3245 -0.002605  0.0256    2.3501   
    18. B(H  16,N   3)                1.9103 -0.002416  0.0412    1.9515   
    19. B(H  16,N   7)                1.0211 -0.011830  0.0156    1.0368   
    20. B(H  17,C   8)                1.1020 -0.008360  0.0126    1.1146   
    21. A(C   6,C   0,H  10)          121.59 -0.000859    0.02    121.61   
    22. A(C   1,C   0,C   6)          116.43 -0.001239    0.42    116.85   
    23. A(C   1,C   0,H  10)          121.97  0.002098   -0.44    121.53   
    24. A(C   0,C   1,N   3)          122.59  0.012424   -1.59    121.00   
    25. A(C   0,C   1,N   2)          119.56 -0.011625    1.32    120.88   
    26. A(N   2,C   1,N   3)          117.84 -0.000796    0.27    118.11   
    27. A(C   1,N   2,H  12)          110.89 -0.002450    0.91    111.80   
    28. A(H  11,N   2,H  12)          109.03 -0.001160    0.90    109.94   
    29. A(C   1,N   2,H  11)          112.64  0.000302   -0.23    112.41   
    30. A(C   1,N   3,C   4)          115.84 -0.004687    0.65    116.49   
    31. A(C   4,N   3,H  16)          123.60  0.002520   -0.27    123.33   
    32. A(C   1,N   3,H  16)          120.14  0.002119   -0.22    119.92   
    33. A(N   3,C   4,N   5)          126.53 -0.007994    0.86    127.39   
    34. A(N   3,C   4,H  13)          116.84  0.005199   -0.62    116.21   
    35. A(N   5,C   4,H  13)          116.63  0.002797   -0.24    116.39   
    36. A(C   4,N   5,C   6)          115.23 -0.000137   -0.20    115.02   
    37. A(N   5,C   6,H  14)          115.52 -0.001296    0.14    115.66   
    38. A(C   0,C   6,H  14)          121.10 -0.000336   -0.01    121.09   
    39. A(C   0,C   6,N   5)          123.38  0.001634   -0.14    123.24   
    40. A(H  15,N   7,H  16)          118.55 -0.005063    0.67    119.22   
    41. A(C   8,N   7,H  16)          118.23  0.000671    0.23    118.46   
    42. A(C   8,N   7,H  15)          123.16  0.004407   -0.92    122.25   
    43. A(O   9,C   8,H  17)          123.79  0.005660   -0.99    122.80   
    44. A(N   7,C   8,H  17)          113.28 -0.002585    0.25    113.53   
    45. A(N   7,C   8,O   9)          122.93 -0.003076    0.74    123.67   
    46. A(C   8,O   9,H  12)          114.41  0.001681   -0.17    114.24   
    47. A(N   2,H  12,H  16)          121.14  0.002605   -0.30    120.84   
    48. A(N   2,H  12,O   9)          164.62 -0.002202    1.33    165.95   
    49. A(O   9,H  12,H  16)           72.42 -0.000804   -0.80     71.62   
    50. A(N   3,H  16,H  12)           68.16 -0.001477   -0.32     67.84   
    51. A(N   7,H  16,H  12)          108.57  0.001110    0.58    109.15   
    52. A(N   3,H  16,N   7)          173.43 -0.000759    0.66    174.09   
    53. D(N   2,C   1,C   0,H  10)      0.64  0.000863   -1.28     -0.64   
    54. D(N   2,C   1,C   0,C   6)    179.92  0.000832   -1.49    178.43   
    55. D(N   3,C   1,C   0,C   6)      0.07 -0.000591    0.51      0.58   
    56. D(N   3,C   1,C   0,H  10)   -179.22 -0.000560    0.72   -178.49   
    57. D(H  12,N   2,C   1,C   0)    175.23  0.000261   -0.49    174.73   
    58. D(H  11,N   2,C   1,C   0)     52.72  0.003359   -2.17     50.55   
    59. D(H  11,N   2,C   1,N   3)   -127.42  0.004735   -4.08   -131.50   
    60. D(H  12,N   2,C   1,N   3)     -4.91  0.001637   -2.40     -7.31   
    61. D(H  16,N   3,C   1,N   2)     -7.11 -0.001659    3.61     -3.51   
    62. D(H  16,N   3,C   1,C   0)    172.74 -0.000276    1.64    174.38   
    63. D(C   4,N   3,C   1,N   2)   -179.93 -0.001425    2.27   -177.66   
    64. D(C   4,N   3,C   1,C   0)     -0.07 -0.000042    0.30      0.23   
    65. D(H  13,C   4,N   3,C   1)   -179.89 -0.000034    0.32   -179.57   
    66. D(N   5,C   4,N   3,H  16)   -172.51  0.001090   -2.47   -174.98   
    67. D(N   5,C   4,N   3,C   1)      0.03  0.000789   -1.08     -1.05   
    68. D(H  13,C   4,N   3,H  16)      7.58  0.000267   -1.08      6.50   
    69. D(C   6,N   5,C   4,H  13)    179.93  0.000020   -0.49    179.43   
    70. D(C   6,N   5,C   4,N   3)      0.01 -0.000802    0.90      0.92   
    71. D(H  14,C   6,N   5,C   4)    179.73  0.000473   -0.56    179.17   
    72. D(C   0,C   6,N   5,C   4)     -0.01  0.000055    0.05      0.04   
    73. D(H  14,C   6,C   0,C   1)   -179.76  0.000153   -0.06   -179.82   
    74. D(N   5,C   6,C   0,H  10)    179.26  0.000584   -0.92    178.34   
    75. D(H  14,C   6,C   0,H  10)     -0.47  0.000145   -0.27     -0.74   
    76. D(N   5,C   6,C   0,C   1)     -0.03  0.000592   -0.71     -0.73   
    77. D(H  17,C   8,N   7,H  16)   -179.26  0.000087    0.35   -178.91   
    78. D(H  17,C   8,N   7,H  15)     -1.98  0.000296   -0.06     -2.04   
    79. D(O   9,C   8,N   7,H  16)      0.49 -0.000076   -0.00      0.48   
    80. D(O   9,C   8,N   7,H  15)    177.77  0.000133   -0.41    177.36   
    81. D(H  12,O   9,C   8,H  17)    163.48 -0.001211    1.05    164.53   
    82. D(H  12,O   9,C   8,N   7)    -16.24 -0.001007    1.43    -14.81   
    83. D(O   9,H  12,N   2,C   1)   -137.11  0.000823   -0.33   -137.44   
    84. D(H  16,H  12,O   9,C   8)     14.67  0.001098   -1.35     13.32   
    85. D(N   2,H  12,O   9,C   8)    167.99  0.000353   -0.87    167.12   
    86. D(H  16,H  12,N   2,H  11)    137.46 -0.002895    1.43    138.89   
    87. D(H  16,H  12,N   2,C   1)     12.88 -0.000795    0.47     13.35   
    88. D(O   9,H  12,N   2,H  11)    -12.54 -0.001277    0.64    -11.90   
    89. D(N   3,H  16,H  12,O   9)    158.45 -0.001762    2.02    160.47   
    90. D(N   7,H  16,H  12,O   9)    -15.48 -0.001002    1.39    -14.10   
    91. D(N   7,H  16,H  12,N   2)    172.52  0.000552    0.55    173.07   
    92. D(H  12,H  16,N   7,H  15)   -165.47  0.000258   -0.37   -165.85   
    93. D(H  12,H  16,N   7,C   8)     11.93  0.000712   -0.80     11.13   
    94. D(N   3,H  16,N   7,H  15)    135.43  0.000325    0.24    135.67   
    95. D(N   3,H  16,N   7,C   8)    -47.16  0.000779   -0.19    -47.35   
    96. D(H  12,H  16,N   3,C   4)   -179.00  0.000014   -0.79   -179.79   
    97. D(H  12,H  16,N   3,C   1)      8.77  0.000805   -2.31      6.47   
    98. D(N   3,H  16,H  12,N   2)    -13.55 -0.000208    1.18    -12.37   
    99. D(N   7,H  16,N   3,C   4)   -117.80  0.000339   -1.58   -119.38   
   100. D(N   7,H  16,N   3,C   1)     69.97  0.001130   -3.09     66.88   
    ----------------------------------------------------------------------------

         *************************************************************
         *                GEOMETRY OPTIMIZATION CYCLE   2            *
         *************************************************************
---------------------------------
CARTESIAN COORDINATES (ANGSTROEM)
---------------------------------
  C      3.109282   -0.606283   -0.051987
  C      1.706864   -0.638368   -0.046231
  N      1.020901   -1.841627   -0.151632
  N      0.985889    0.500366    0.018499
  C      1.681624    1.647753    0.071176
  N      3.008840    1.791024    0.086444
  C      3.706679    0.640669    0.023884
  N     -1.990764    0.342575   -0.131198
  C     -2.530818   -0.861922    0.156574
  O     -1.866826   -1.860259    0.417265
  H      3.700054   -1.519136   -0.128370
  H      1.353913   -2.537803    0.513447
  H      0.000892   -1.712345   -0.045445
  H      1.092157    2.568362    0.130951
  H      4.797644    0.746742    0.021454
  H     -2.557535    1.142559   -0.381575
  H     -0.957890    0.431170   -0.140358
  H     -3.644907   -0.869077    0.124901

----------------------------
CARTESIAN COORDINATES (A.U.)
----------------------------
  NO LB      ZA    FRAG     MASS         X           Y           Z
   0 C     6.0000    0    12.011    5.875692   -1.145709   -0.098241
   1 C     6.0000    0    12.011    3.225505   -1.206341   -0.087364
   2 N     7.0000    0    14.007    1.929223   -3.480171   -0.286543
   3 N     7.0000    0    14.007    1.863060    0.945555    0.034958
   4 C     6.0000    0    12.011    3.177809    3.113801    0.134504
   5 N     7.0000    0    14.007    5.685884    3.384544    0.163356
   6 C     6.0000    0    12.011    7.004608    1.210689    0.045135
   7 N     7.0000    0    14.007   -3.761999    0.647374   -0.247927
   8 C     6.0000    0    12.011   -4.782553   -1.628796    0.295882
   9 O     8.0000    0    15.999   -3.527790   -3.515380    0.788516
  10 H     1.0000    0     1.008    6.992089   -2.870751   -0.242584
  11 H     1.0000    0     1.008    2.558525   -4.795752    0.970275
  12 H     1.0000    0     1.008    0.001686   -3.235863   -0.085879
  13 H     1.0000    0     1.008    2.063877    4.853501    0.247461
  14 H     1.0000    0     1.008    9.066234    1.411137    0.040542
  15 H     1.0000    0     1.008   -4.833041    2.159123   -0.721072
  16 H     1.0000    0     1.008   -1.810150    0.814794   -0.265237
  17 H     1.0000    0     1.008   -6.887877   -1.642318    0.236028

--------------------------------
INTERNAL COORDINATES (ANGSTROEM)
--------------------------------
 C      0   0   0     0.000000000000     0.00000000     0.00000000
 C      1   0   0     1.402797233968     0.00000000     0.00000000
 N      2   1   0     1.389059479973   120.87728962     0.00000000
 N      2   1   3     1.349337301019   121.00199361   182.14649254
 C      4   2   1     1.342876861451   116.49514322     0.23645834
 N      5   4   2     1.335013819368   127.38810567   358.94101337
 C      6   5   4     1.346925789959   115.01680096     0.91566018
 N      4   2   1     2.984588440546   119.06976320   176.55192575
 C      8   4   2     1.351030778842   115.79311516    19.89130407
 O      9   8   4     1.226997149667   123.66470570   357.32093899
 H      1   2   3     1.090021442425   121.53158162   359.35776679
 H      3   2   1     1.018768342018   112.39478674    50.57007717
 H      3   2   1     1.033637645056   111.78850624   174.75571379
 H      5   4   2     1.094791097584   116.21050234   180.43023634
 H      7   6   5     1.096112573216   115.66563453   179.17165872
 H      8   4   2     1.011875348487   121.95433228   199.86360142
 H      8   4   2     1.036707082284     3.86267447   245.81251615
 H      9   8   4     1.114562682501   113.53040888   177.93165448

---------------------------
INTERNAL COORDINATES (A.U.)
---------------------------
 C      0   0   0     0.000000000000     0.00000000     0.00000000
 C      1   0   0     2.650902593622     0.00000000     0.00000000
 N      2   1   0     2.624942000876   120.87728962     0.00000000
 N      2   1   3     2.549877961211   121.00199361   182.14649254
 C      4   2   1     2.537669499721   116.49514322     0.23645834
 N      5   4   2     2.522810503606   127.38810567   358.94101337
 C      6   5   4     2.545320865739   115.01680096     0.91566018
 N      4   2   1     5.640054775100   119.06976320   176.55192575
 C      8   4   2     2.553078170510   115.79311516    19.89130407
 O      9   8   4     2.318688579973   123.66470570   357.32093899
 H      1   2   3     2.059842006285   121.53158162   359.35776679
 H      3   2   1     1.925193160323   112.39478674    50.57007717
 H      3   2   1     1.953292070867   111.78850624   174.75571379
 H      5   4   2     2.068855348288   116.21050234   180.43023634
 H      7   6   5     2.071352575326   115.66563453   179.17165872
 H      8   4   2     1.912167290307   121.95433228   199.86360142
 H      8   4   2     1.959092466613     3.86267447   245.81251615
 H      9   8   4     2.106218229015   113.53040888   177.93165448



           ************************************************************
           *        Program running with 6 parallel MPI-processes     *
           *              working on a common directory               *
           ************************************************************
 One Electron integrals                  ... done
 Pre-screening matrix                    ... done


           ************************************************************
           *        Program running with 6 parallel MPI-processes     *
           *              working on a common directory               *
           ************************************************************

Diagonalization of the overlap matrix:
Smallest eigenvalue                        ... 1.233e-03
Time for diagonalization                   ...    0.009 sec
Threshold for overlap eigenvalues          ... 1.000e-08
Number of eigenvalues below threshold      ... 0
Time for construction of square roots      ...    0.004 sec
Total time needed                          ...    0.014 sec

-------------------
DFT GRID GENERATION
-------------------

General Integration Accuracy     IntAcc      ...  4.340
Radial Grid Type                 RadialGrid  ... Gauss-Chebyshev
Angular Grid (max. acc.)         AngularGrid ... Lebedev-110
Angular grid pruning method      GridPruning ... 3 (G Style)
Weight generation scheme         WeightScheme... Becke
Basis function cutoff            BFCut       ...    1.0000e-11
Integration weight cutoff        WCut        ...    1.0000e-14
Grids for H and He will be reduced by one unit

# of grid points (after initial pruning)     ...  23156 (   0.0 sec)
# of grid points (after weights+screening)   ...  21549 (   0.0 sec)
nearest neighbour list constructed           ...    0.0 sec
Grid point re-assignment to atoms done       ...    0.0 sec
Grid point division into batches done        ...    0.0 sec
Reduced shell lists constructed in    0.1 sec

Total number of grid points                  ...    21549
Total number of batches                      ...      346
Average number of points per batch           ...       62
Average number of grid points per atom       ...     1197
Average number of shells per batch           ...    67.51 (80.37%)
Average number of basis functions per batch  ...   141.58 (78.65%)
Average number of large shells per batch     ...    52.24 (77.38%)
Average number of large basis fcns per batch ...   110.07 (77.74%)
Maximum spatial batch extension              ...   6.68, 14.02, 21.24 au
Average spatial batch extension              ...   0.33,  0.38,  0.61 au

Time for grid setup =    0.137 sec

--------------------
COSX GRID GENERATION
--------------------

General Integration Accuracy     IntAcc      ...  3.340
Radial Grid Type                 RadialGrid  ... Gauss-Chebyshev
Angular Grid (max. acc.)         AngularGrid ... Lebedev-50
Angular grid pruning method      GridPruning ... 3 (G Style)
Weight generation scheme         WeightScheme... Becke
Basis function cutoff            BFCut       ...    1.0000e-11
Integration weight cutoff        WCut        ...    1.0000e-14
Grids for H and He will be reduced by one unit

# of grid points (after initial pruning)     ...   8304 (   0.0 sec)
# of grid points (after weights+screening)   ...   7794 (   0.0 sec)
nearest neighbour list constructed           ...    0.0 sec
Grid point re-assignment to atoms done       ...    0.0 sec
Grid point division into batches done        ...    0.0 sec
Reduced shell lists constructed in    0.0 sec

Total number of grid points                  ...     7794
Total number of batches                      ...      129
Average number of points per batch           ...       60
Average number of grid points per atom       ...      433
Average number of shells per batch           ...    68.39 (81.42%)
Average number of basis functions per batch  ...   144.30 (80.17%)
Average number of large shells per batch     ...    52.65 (76.99%)
Average number of large basis fcns per batch ...   110.65 (76.68%)
Maximum spatial batch extension              ...   4.55, 12.66, 17.53 au
Average spatial batch extension              ...   0.40,  0.49,  0.79 au

Overlap Fitting                  UseSFitting ... on
Constructing numerical overlap ... done (      0.0 sec)
Inverting numerical overlap    ... done (      0.0 sec)
Obtaining analytic overlap     ... done (      0.0 sec)
Final contraction and storage  ... done (      0.0 sec)


General Integration Accuracy     IntAcc      ...  3.670
Radial Grid Type                 RadialGrid  ... Gauss-Chebyshev
Angular Grid (max. acc.)         AngularGrid ... Lebedev-50
Angular grid pruning method      GridPruning ... 3 (G Style)
Weight generation scheme         WeightScheme... Becke
Basis function cutoff            BFCut       ...    1.0000e-11
Integration weight cutoff        WCut        ...    1.0000e-14
Grids for H and He will be reduced by one unit

# of grid points (after initial pruning)     ...  10572 (   0.0 sec)
# of grid points (after weights+screening)   ...   9895 (   0.0 sec)
nearest neighbour list constructed           ...    0.0 sec
Grid point re-assignment to atoms done       ...    0.0 sec
Grid point division into batches done        ...    0.0 sec
Reduced shell lists constructed in    0.0 sec

Total number of grid points                  ...     9895
Total number of batches                      ...      163
Average number of points per batch           ...       60
Average number of grid points per atom       ...      550
Average number of shells per batch           ...    67.69 (80.58%)
Average number of basis functions per batch  ...   141.97 (78.87%)
Average number of large shells per batch     ...    52.21 (77.13%)
Average number of large basis fcns per batch ...   109.59 (77.19%)
[...]
Radial Grid Type                 RadialGrid  ... Gauss-Chebyshev
Angular Grid (max. acc.)         AngularGrid ... Lebedev-110
Angular grid pruning method      GridPruning ... 3 (G Style)
Weight generation scheme         WeightScheme... Becke
Basis function cutoff            BFCut       ...    1.0000e-11
Integration weight cutoff        WCut        ...    1.0000e-14
Grids for H and He will be reduced by one unit

# of grid points (after initial pruning)     ...  19978 (   0.0 sec)
# of grid points (after weights+screening)   ...  18624 (   0.0 sec)
nearest neighbour list constructed           ...    0.0 sec
Grid point re-assignment to atoms done       ...    0.0 sec
Grid point division into batches done        ...    0.0 sec
Reduced shell lists constructed in    0.1 sec

Total number of grid points                  ...    18624
Total number of batches                      ...      300
Average number of points per batch           ...       62
Average number of grid points per atom       ...     1035
Average number of shells per batch           ...    68.27 (81.28%)
Average number of basis functions per batch  ...   143.61 (79.78%)
Average number of large shells per batch     ...    52.53 (76.94%)
Average number of large basis fcns per batch ...   110.73 (77.10%)
Maximum spatial batch extension              ...   4.59,  7.17, 18.10 au
Average spatial batch extension              ...   0.34,  0.34,  0.60 au

Overlap Fitting                  UseSFitting ... on
Constructing numerical overlap ... done (      0.0 sec)
Inverting numerical overlap    ... done (      0.0 sec)
Obtaining analytic overlap     ... done (      0.0 sec)
Final contraction and storage  ... done (      0.0 sec)

Time for X-Grid setup             =    0.341 sec
--------------
SCF ITERATIONS
--------------
ITER       Energy         Delta-E        Max-DP      RMS-DP      [F,P]     Damp
               ***  Starting incremental Fock matrix formation  ***
                      *** Initiating the SOSCF procedure ***
                      *** Re-Reading the Fockian *** 
                      *** Removing any level shift *** 
ITER      Energy       Delta-E        Grad      Rot      Max-DP    RMS-DP
  0   -489.36847429 -489.3684742850  0.000710  0.000710  0.002228  0.000068
               *** Restarting incremental Fock matrix formation ***
  1   -489.36854667  -0.0000723808  0.000316  0.000720  0.000938  0.000035
  2   -489.36855576  -0.0000090940  0.000109  0.000316  0.000724  0.000015
  3   -489.36855506   0.0000006994  0.000189  0.000228  0.000416  0.000009
  4   -489.36855631  -0.0000012505  0.000026  0.000106  0.000106  0.000003
  5   -489.36855628   0.0000000343  0.000053  0.000083  0.000078  0.000002
  6   -489.36855632  -0.0000000470  0.000004  0.000012  0.000014  0.000001
  7   -489.36855633  -0.0000000025  0.000005  0.000010  0.000012  0.000000
                  ***Gradient check signals convergence***
              ***Rediagonalizing the Fockian in SOSCF/NRSCF***

               *****************************************************
               *                     SUCCESS                       *
               *           SCF CONVERGED AFTER   8 CYCLES          *
               *****************************************************

Setting up the final grid:

General Integration Accuracy     IntAcc      ...  4.670
Radial Grid Type                 RadialGrid  ... Gauss-Chebyshev
Angular Grid (max. acc.)         AngularGrid ... Lebedev-302
Angular grid pruning method      GridPruning ... 3 (G Style)
Weight generation scheme         WeightScheme... Becke
Basis function cutoff            BFCut       ...    1.0000e-11
Integration weight cutoff        WCut        ...    1.0000e-14
Grids for H and He will be reduced by one unit

# of grid points (after initial pruning)     ...  89272 (   0.0 sec)
# of grid points (after weights+screening)   ...  81833 (   0.1 sec)
nearest neighbour list constructed           ...    0.0 sec
Grid point re-assignment to atoms done       ...    0.0 sec
Grid point division into batches done        ...    0.4 sec
Reduced shell lists constructed in    0.5 sec

Total number of grid points                  ...    81833
Total number of batches                      ...     1288
Average number of points per batch           ...       63
Average number of grid points per atom       ...     4546
Average number of shells per batch           ...    64.54 (76.83%)
Average number of basis functions per batch  ...   135.31 (75.17%)
Average number of large shells per batch     ...    48.51 (75.17%)
Average number of large basis fcns per batch ...   102.00 (75.38%)
Maximum spatial batch extension              ...   8.60,  8.49, 18.08 au
Average spatial batch extension              ...   0.24,  0.24,  0.31 au

Final grid set up in    0.7 sec
Final integration                            ... done (   0.4 sec)
Change in XC energy                          ...    -0.000205107
Integrated number of electrons               ...    73.999885985
Previous integrated no of electrons          ...    74.001908860
Old exchange energy                            =    -12.685672566 Eh
New exchange energy                            =    -12.685203885 Eh
Exchange energy change after final integration =      0.000468682 Eh
Total energy after final integration           =   -489.368292755 Eh
Final COS-X integration done in                =     2.422 sec

----------------
TOTAL SCF ENERGY
----------------

Total Energy       :         -489.36829276 Eh          -13316.38824 eV

Components:
Nuclear Repulsion  :          496.48355590 Eh           13510.00439 eV
Electronic Energy  :         -985.85184865 Eh          -26826.39263 eV
One Electron Energy:        -1649.12849257 Eh          -44875.06769 eV
Two Electron Energy:          663.27664391 Eh           18048.67506 eV

Virial components:
Potential Energy   :         -975.76939335 Eh          -26552.03507 eV
Kinetic Energy     :          486.40110059 Eh           13235.64683 eV
Virial Ratio       :            2.00610030


DFT components:
N(Alpha)           :       36.999942992365 electrons
N(Beta)            :       36.999942992365 electrons
N(Total)           :       73.999885984729 electrons
E(X)               :      -50.454147762344 Eh       
E(C)               :       -2.988940704695 Eh       
E(XC)              :      -53.443088467040 Eh       

---------------
SCF CONVERGENCE
---------------

  Last Energy change         ...   -3.8127e-09  Tolerance :   1.0000e-08
  Last MAX-Density change    ...    2.4339e-13  Tolerance :   1.0000e-07
  Last RMS-Density change    ...    1.7084e-15  Tolerance :   5.0000e-09
  Last Orbital Gradient      ...    1.7315e-06  Tolerance :   1.0000e-05
  Last Orbital Rotation      ...    5.1126e-06  Tolerance :   1.0000e-05

             **** THE GBW FILE WAS UPDATED (AT-v/e/frag_16_c00001.gbw) ****
             **** DENSITY FILE WAS UPDATED (AT-v/e/frag_16_c00001.scfp.tmp) ****
             **** ENERGY FILE WAS UPDATED (AT-v/e/frag_16_c00001.en.tmp) ****
----------------
ORBITAL ENERGIES
----------------

  NO   OCC          E(Eh)            E(eV) 
   0   2.0000     -19.112209      -520.0696 
   1   2.0000     -14.342666      -390.2838 
   2   2.0000     -14.337640      -390.1470 
   3   2.0000     -14.329449      -389.9241 
   4   2.0000     -14.314944      -389.5294 
   5   2.0000     -10.287739      -279.9436 
   6   2.0000     -10.273278      -279.5501 
   7   2.0000     -10.250444      -278.9288 
   8   2.0000     -10.229889      -278.3694 
   9   2.0000     -10.194265      -277.4001 
  10   2.0000      -1.031805       -28.0768 
  11   2.0000      -0.986052       -26.8318 
  12   2.0000      -0.923377       -25.1264 
  13   2.0000      -0.899044       -24.4642 
  14   2.0000      -0.861677       -23.4474 
  15   2.0000      -0.773746       -21.0547 
  16   2.0000      -0.654549       -17.8112 
  17   2.0000      -0.641184       -17.4475 
  18   2.0000      -0.611988       -16.6530 
  19   2.0000      -0.547711       -14.9040 
  20   2.0000      -0.540524       -14.7084 
  21   2.0000      -0.536613       -14.6020 
  22   2.0000      -0.481624       -13.1057 
  23   2.0000      -0.465130       -12.6568 
  24   2.0000      -0.462185       -12.5767 
  25   2.0000      -0.443697       -12.0736 
  26   2.0000      -0.426798       -11.6138 
  27   2.0000      -0.410233       -11.1630 
  28   2.0000      -0.400271       -10.8919 
  29   2.0000      -0.396928       -10.8009 
  30   2.0000      -0.346397        -9.4259 
  31   2.0000      -0.301069        -8.1925 
  32   2.0000      -0.293137        -7.9767 
  33   2.0000      -0.267320        -7.2741 
  34   2.0000      -0.263886        -7.1807 
  35   2.0000      -0.249198        -6.7810 
  36   2.0000      -0.231026        -6.2865 
  37   0.0000      -0.026234        -0.7139 
  38   0.0000      -0.004636        -0.1261 
  39   0.0000       0.026925         0.7327 
  40   0.0000       0.058377         1.5885 
  41   0.0000       0.063627         1.7314 
  42   0.0000       0.085951         2.3388 
  43   0.0000       0.098306         2.6751 
  44   0.0000       0.126380         3.4390 
  45   0.0000       0.137391         3.7386 
  46   0.0000       0.140210         3.8153 
  47   0.0000       0.187058         5.0901 
  48   0.0000       0.201739         5.4896 
  49   0.0000       0.214052         5.8247 
  50   0.0000       0.272339         7.4107 
  51   0.0000       0.277742         7.5577 
  52   0.0000       0.316507         8.6126 
  53   0.0000       0.329434         8.9644 
  54   0.0000       0.339541         9.2394 
  55   0.0000       0.355998         9.6872 
  56   0.0000       0.367239         9.9931 
  57   0.0000       0.396701        10.7948 
  58   0.0000       0.446771        12.1572 
  59   0.0000       0.459596        12.5062 
  60   0.0000       0.467071        12.7096 
  61   0.0000       0.473499        12.8846 
  62   0.0000       0.479633        13.0515 
  63   0.0000       0.490500        13.3472 
  64   0.0000       0.495400        13.4805 
  65   0.0000       0.511330        13.9140 
  66   0.0000       0.516898        14.0655 
  67   0.0000       0.538553        14.6548 
  68   0.0000       0.548381        14.9222 
  69   0.0000       0.548526        14.9262 
  70   0.0000       0.575156        15.6508 
  71   0.0000       0.591497        16.0955 
  72   0.0000       0.599838        16.3224 
  73   0.0000       0.629912        17.1408 
  74   0.0000       0.647970        17.6322 
  75   0.0000       0.682535        18.5727 
  76   0.0000       0.688781        18.7427 
  77   0.0000       0.698450        19.0058 
  78   0.0000       0.730147        19.8683 
  79   0.0000       0.733974        19.9724 
  80   0.0000       0.753699        20.5092 
  81   0.0000       0.765115        20.8198 
  82   0.0000       0.768392        20.9090 
  83   0.0000       0.825788        22.4708 
  84   0.0000       0.844346        22.9758 
  85   0.0000       0.861358        23.4387 
  86   0.0000       0.878209        23.8973 
  87   0.0000       0.894662        24.3450 
  88   0.0000       0.899642        24.4805 
  89   0.0000       0.924401        25.1542 
  90   0.0000       0.933310        25.3966 
  91   0.0000       0.941736        25.6259 
  92   0.0000       0.962858        26.2007 
  93   0.0000       0.967510        26.3273 
  94   0.0000       1.000727        27.2312 
  95   0.0000       1.030820        28.0500 
  96   0.0000       1.047178        28.4952 
  97   0.0000       1.061351        28.8808 
  98   0.0000       1.065755        29.0007 
  99   0.0000       1.093666        29.7602 
 100   0.0000       1.100336        29.9417 
 101   0.0000       1.120892        30.5010 
 102   0.0000       1.149106        31.2688 
 103   0.0000       1.157063        31.4853 
 104   0.0000       1.179103        32.0850 
 105   0.0000       1.209053        32.9000 
 106   0.0000       1.232137        33.5282 
 107   0.0000       1.251244        34.0481 
 108   0.0000       1.272448        34.6251 
 109   0.0000       1.290133        35.1063 
 110   0.0000       1.315422        35.7945 
 111   0.0000       1.359333        36.9893 
 112   0.0000       1.376932        37.4682 
 113   0.0000       1.429527        38.8994 
 114   0.0000       1.467577        39.9348 
 115   0.0000       1.482623        40.3442 
 116   0.0000       1.490077        40.5470 
 117   0.0000       1.501108        40.8472 
 118   0.0000       1.511748        41.1367 
 119   0.0000       1.551813        42.2270 
 120   0.0000       1.580546        43.0088 
 121   0.0000       1.601990        43.5924 
 122   0.0000       1.632237        44.4154 
 123   0.0000       1.644349        44.7450 
 124   0.0000       1.648139        44.8481 
 125   0.0000       1.654037        45.0086 
 126   0.0000       1.659741        45.1638 
 127   0.0000       1.673512        45.5386 
 128   0.0000       1.691061        46.0161 
 129   0.0000       1.704048        46.3695 
 130   0.0000       1.718608        46.7657 
 131   0.0000       1.745666        47.5020 
 132   0.0000       1.765141        48.0319 
 133   0.0000       1.785620        48.5892 
 134   0.0000       1.802402        49.0458 
 135   0.0000       1.818295        49.4783 
 136   0.0000       1.846364        50.2421 
 137   0.0000       1.871661        50.9305 
 138   0.0000       1.899050        51.6758 
 139   0.0000       1.954544        53.1859 
 140   0.0000       1.963896        53.4403 
 141   0.0000       1.995878        54.3106 
 142   0.0000       2.087105        56.7930 
 143   0.0000       2.100525        57.1582 
 144   0.0000       2.105264        57.2871 
 145   0.0000       2.122681        57.7611 
 146   0.0000       2.146053        58.3971 
 147   0.0000       2.163903        58.8828 
 148   0.0000       2.173121        59.1336 
 149   0.0000       2.215094        60.2758 
 150   0.0000       2.218047        60.3561 
 151   0.0000       2.243817        61.0574 
 152   0.0000       2.284881        62.1748 
 153   0.0000       2.290600        62.3304 
 154   0.0000       2.333892        63.5084 
 155   0.0000       2.381575        64.8059 
 156   0.0000       2.387579        64.9693 
 157   0.0000       2.439668        66.3868 
 158   0.0000       2.486045        67.6487 
 159   0.0000       2.512553        68.3700 
 160   0.0000       2.532494        68.9127 
 161   0.0000       2.547032        69.3083 
 162   0.0000       2.576691        70.1153 
 163   0.0000       2.608692        70.9861 
 164   0.0000       2.664337        72.5003 
 165   0.0000       2.691218        73.2318 
 166   0.0000       2.722820        74.0917 
 167   0.0000       2.745783        74.7166 
 168   0.0000       2.770779        75.3967 
 169   0.0000       2.793075        76.0034 
 170   0.0000       2.878945        78.3401 
 171   0.0000       2.881734        78.4160 
 172   0.0000       2.942966        80.0822 
 173   0.0000       2.981105        81.1200 
 174   0.0000       3.077247        83.7362 
 175   0.0000       3.130691        85.1904 
 176   0.0000       3.289448        89.5104 
 177   0.0000       3.400439        92.5307 
 178   0.0000       3.462031        94.2066 
 179   0.0000       3.516098        95.6779 
-------
TIMINGS
-------

Total SCF time: 0 days 0 hours 0 min 16 sec 

Total time                  ....      16.835 sec
Sum of individual times     ....      16.754 sec  ( 99.5%)

Fock matrix formation       ....      15.477 sec  ( 91.9%)
  Split-RI-J                ....       2.425 sec  ( 15.7% of F)
  Chain of spheres X        ....      11.865 sec  ( 76.7% of F)
  COS-X 1 center corr.      ....       0.000 sec  (  0.0% of F)
  XC integration            ....       1.134 sec  (  7.3% of F)
    Basis function eval.    ....       0.393 sec  ( 34.6% of XC)
    Density eval.           ....       0.173 sec  ( 15.2% of XC)
    XC-Functional eval.     ....       0.043 sec  (  3.8% of XC)
    XC-Potential eval.      ....       0.308 sec  ( 27.1% of XC)
Diagonalization             ....       0.008 sec  (  0.0%)
Density matrix formation    ....       0.006 sec  (  0.0%)
Population analysis         ....       0.000 sec  (  0.0%)
Initial guess               ....       0.010 sec  (  0.1%)
Orbital Transformation      ....       0.000 sec  (  0.0%)
Orbital Orthonormalization  ....       0.006 sec  (  0.0%)
DIIS solution               ....       0.001 sec  (  0.0%)
SOSCF solution              ....       0.123 sec  (  0.7%)
Grid generation             ....       1.128 sec  (  6.7%)


-------------------------------------------------------------------------------
                          DFT DISPERSION CORRECTION                            
                                                                               
                              DFTD3 V3.1  Rev 1                                
                          USING Becke-Johnson damping                          
-------------------------------------------------------------------------------
The B3LYP functional is recognized
Active option DFTDOPT                   ...         4   

molecular C6(AA) [au] = 3511.359988 


            DFT-D V3
 parameters
 s6 scaling factor         :     1.0000 
 a1 scaling factor         :     0.3981 
 s8 scaling factor         :     1.9889 
 a2 scaling factor         :     4.4211 
 ad hoc parameters k1-k3   :    16.0000     1.3333    -4.0000 

 Edisp/kcal,au: -17.894781856900  -0.028517147051 
 E6   /kcal   :  -8.630717567 
 E8   /kcal   :  -9.264064290 
 % E8         :  51.769640805 

-------------------------   ----------------
Dispersion correction           -0.028517147
-------------------------   ----------------


-------------------------   --------------------
FINAL SINGLE POINT ENERGY      -489.396809902455
-------------------------   --------------------

                                *** OPTIMIZATION RUN DONE ***

                            ***************************************
                            *     ORCA property calculations      *
                            ***************************************

                                    ---------------------
                                    Active property flags
                                    ---------------------
   (+) Dipole Moment


------------------------------------------------------------------------------
                       ORCA ELECTRIC PROPERTIES CALCULATION
------------------------------------------------------------------------------

Dipole Moment Calculation                       ... on
Quadrupole Moment Calculation                   ... off
Polarizability Calculation                      ... off
GBWName                                         ... AT-v/e/frag_16_c00001.gbw
Electron density file                           ... AT-v/e/frag_16_c00001.scfp.tmp
The origin for moment calculation is the CENTER OF MASS  = ( 1.447736, -0.232206  0.018324)

-------------
DIPOLE MOMENT
-------------
                                X             Y             Z
Electronic contribution:      1.84353       0.80641      -0.20301
Nuclear contribution   :     -2.14214      -0.81834       0.32744
                        -----------------------------------------
Total Dipole Moment    :     -0.29861      -0.01193       0.12443
                        -----------------------------------------
Magnitude (a.u.)       :      0.32371
Magnitude (Debye)      :      0.82281


Timings for individual modules:

Sum of individual times         ...      283.050 sec (=   4.718 min)
GTO integral calculation        ...        8.634 sec (=   0.144 min)   3.1 %
SCF iterations                  ...      219.201 sec (=   3.653 min)  77.4 %
SCF Gradient evaluation         ...       53.928 sec (=   0.899 min)  19.1 %
Geometry relaxation             ...        1.286 sec (=   0.021 min)   0.5 %
                             ****ORCA TERMINATED NORMALLY****
TOTAL RUN TIME: 0 days 0 hours 4 minutes 45 seconds 531 msec
