
                                 *****************
                                 * O   R   C   A *
                                 *****************

           --- An Ab Initio, DFT and Semiempirical electronic structure package ---

                  #######################################################
                  #                        -***-                        #
                  #  Department of molecular theory and spectroscopy    #
                  #              Directorship: Frank Neese              #
                  # Max Planck Institute for Chemical Energy Conversion #
                  #                  D-45470 Muelheim/Ruhr              #
                  #                       Germany                       #
                  #                                                     #
                  #                  All rights reserved                #
                  #                        -***-                        #
                  #######################################################


                         Program Version 4.0.1.2 - RELEASE -


 With contributions from (in alphabetic order):
   Daniel Aravena         : Magnetic Properties
   Michael Atanasov       : Ab Initio Ligand Field Theory
   Ute Becker             : Parallelization
   Martin Brehm           : Molecular dynamics
   Dmytro Bykov           : SCF Hessian
   Vijay G. Chilkuri      : MRCI spin determinant printing
   Dipayan Datta          : RHF DLPNO-CCSD density
   Achintya Kumar Dutta   : EOM-CC, STEOM-CC
   Dmitry Ganyushin       : Spin-Orbit,Spin-Spin,Magnetic field MRCI
   Yang Guo               : DLPNO-NEVPT2, CIM, IAO-localization
   Andreas Hansen         : Spin unrestricted coupled pair/coupled cluster methods
   Lee Huntington         : MR-EOM, pCC
   Robert Izsak           : Overlap fitted RIJCOSX, COSX-SCS-MP3, EOM
   Christian Kollmar      : KDIIS, OOCD, Brueckner-CCSD(T), CCSD density
   Simone Kossmann        : Meta GGA functionals, TD-DFT gradient, OOMP2, MP2 Hessian
   Martin Krupicka        : AUTO-CI
   Dagmar Lenk            : GEPOL surface
   Dimitrios Liakos       : Extrapolation schemes; parallel MDCI
   Dimitrios Manganas     : ROCIS; embedding schemes
   Dimitrios Pantazis     : SARC Basis sets
   Taras Petrenko         : DFT Hessian,TD-DFT gradient, ASA, ECA, R-Raman, ABS, FL, XAS/XES, NRVS
   Peter Pinski           : DLPNO-MP2
   Christoph Reimann      : Effective Core Potentials
   Marius Retegan         : Local ZFS, SOC
   Christoph Riplinger    : Optimizer, TS searches, QM/MM, DLPNO-CCSD(T), (RO)-DLPNO pert. Triples
   Tobias Risthaus        : Range-separated hybrids, TD-DFT gradient, RPA, STAB
   Michael Roemelt        : Restricted open shell CIS
   Masaaki Saitow         : Open-shell DLPNO
   Barbara Sandhoefer     : DKH picture change effects
   Kantharuban Sivalingam : CASSCF convergence, NEVPT2, FIC-MRCI
   Georgi Stoychev        : AutoAux
   Boris Wezisla          : Elementary symmetry handling
   Frank Wennmohs         : Technical directorship


 We gratefully acknowledge several colleagues who have allowed us to
 interface, adapt or use parts of their codes:
   Stefan Grimme, W. Hujo, H. Kruse,             : VdW corrections, initial TS optimization,
                  C. Bannwarth                     DFT functionals, gCP, sTDA/sTD-DF
   Ed Valeev                                     : LibInt (2-el integral package), F12 methods
   Garnet Chan, S. Sharma, J. Yang, R. Olivares  : DMRG
   Ulf Ekstrom                                   : XCFun DFT Library
   Mihaly Kallay                                 : mrcc  (arbitrary order and MRCC methods)
   Andreas Klamt, Michael Diedenhofen            : otool_cosmo (COSMO solvation model)
   Jiri Pittner, Ondrej Demel                    : Mk-CCSD
   Frank Weinhold                                : gennbo (NPA and NBO analysis)
   Christopher J. Cramer and Donald G. Truhlar   : smd solvation model


 Your calculation uses the libint2 library for the computation of 2-el integrals
 For citations please refer to: http://libint.valeyev.net

 This ORCA versions uses:
   CBLAS   interface :  Fast vector & matrix operations
   LAPACKE interface :  Fast linear algebra routines
   SCALAPACK package :  Parallel linear algebra routines


Your calculation utilizes the atom-pairwise dispersion correction
with the Becke-Johnson damping scheme (D3BJ)
Cite in your paper:
S.Grimme, S.Ehrlich, L.Goerigk, J Comput Chem, (2011), 32, 1456–1465 
S.Grimme, J.Antony, S.Ehrlich and H.Krieg, J.Chem.Phys., 132, (2010), 154104 
   

Your calculation utilizes the basis: cc-pVDZ 
       H, B-Ne : Obtained from the ccRepo (grant-hill.group.shef.ac.uk/ccrepo) Feb. 2017
                 T. H. Dunning, Jr., J. Chem. Phys. 90, 1007 (1989)
            He : Obtained from the ccRepo (grant-hill.group.shef.ac.uk/ccrepo) Feb. 2017
                 D. E. Woon, T. H. Dunning, Jr., J. Chem. Phys. 100, 2975 (1994)
  Li-Be, Na-Mg : Obtained from the ccRepo (grant-hill.group.shef.ac.uk/ccrepo) Feb. 2017
                 B. P. Prascher, D. E. Woon, K. A. Peterson, T. H. Dunning, Jr., A. K. Wilson, Theor. Chem. Acc. 128, 69 (2011)
         Al-Ar : Obtained from the ccRepo (grant-hill.group.shef.ac.uk/ccrepo) Feb. 2017
                 D. E. Woon, T. H. Dunning, Jr., J. Chem. Phys. 98, 1358 (1993)
            Ca : Obtained from the Peterson Research Group Website (tyr0.chem.wsu.edu/~kipeters) Feb. 2017
                 J. Koput, K. A. Peterson, J. Phys. Chem. 106, 9595 (2002)
         Sc-Zn : Obtained from the ccRepo (grant-hill.group.shef.ac.uk/ccrepo) Feb. 2017
                 N. B. Balabanov, K. A. Peterson, J. Chem. Phys. 123, 064107 (2005)
                 N. B. Balabanov, K. A. Peterson, J. Chem. Phys. 125, 074110 (2006)
         Ga-Kr : Obtained from the ccRepo (grant-hill.group.shef.ac.uk/ccrepo) Feb. 2017
                 A. K. Wilson, D. E. Woon, K. A. Peterson, T. H. Dunning, Jr., J. Chem. Phys. 110, 7667 (1999)

Your calculation utilizes the auxiliary basis: def2/J
   F. Weigend, Phys. Chem. Chem. Phys. 8, 1057 (2006).

================================================================================
                                        WARNINGS
                       Please study these warnings very carefully!
================================================================================

Warning: TCutStore was < 0. Adjusted to Thresh (uncritical)

WARNING: Geometry Optimization
  ===> : Switching off AutoStart
         For restart on a previous wavefunction, please use MOREAD

INFO   : the flag for use of LIBINT has been found!

================================================================================
                                       INPUT FILE
================================================================================
NAME = AT-v/e/frag_14_c00001.com
|  1> %pal nprocs 6 end
|  2> %maxcore 1000
|  3> ! b3lyp TIGHTSCF nopop D3BJ
|  4> ! cc-pvdz def2/J RIJCOSX
|  5> ! Opt
|  6> 
|  7> %geom
|  8> maxiter 60
|  9> TolE 1e-4
| 10> TolRMSG 2e-3
| 11> TolMaxG 3e-3
| 12> TolRMSD 2e-2
| 13> TolMaxD 3e-2
| 14> end
| 15> 
| 16> *xyz 0 1
| 17> C 1.655 -0.675 -0.0846
| 18> N 0.9622 -1.8292 -0.2739
| 19> N 1.1053 0.4867 -0.0667
| 20> C 1.8282 1.6297 0.1258
| 21> N 3.0979 1.7182 0.3084
| 22> N -1.8645 0.4835 -0.0607
| 23> C -2.451 -0.7288 0.0715
| 24> O -1.7844 -1.7501 0.1992
| 25> C -3.9311 -0.7861 0.0566
| 26> C -4.7742 0.2457 -0.0754
| 27> H 2.7311 -0.8697 0.0411
| 28> H 1.3249 -2.6711 0.1558
| 29> H -0.0561 -1.7602 -0.1607
| 30> H 1.2409 2.5644 0.1228
| 31> H 3.5594 0.8145 0.2904
| 32> H -2.3596 1.3427 -0.2281
| 33> H -0.8453 0.516 -0.0867
| 34> H -4.3258 -1.7923 0.1645
| 35> H -4.4543 1.2733 -0.1838
| 36> H -5.8459 0.0687 -0.0715
| 37> *
| 38> 
| 39> 
| 40>                          ****END OF INPUT****
================================================================================

                       *****************************
                       * Geometry Optimization Run *
                       *****************************

Geometry optimization settings:
Update method            Update   .... BFGS
Choice of coordinates    CoordSys .... Redundant Internals
Initial Hessian          InHess   .... Almoef's Model

Convergence Tolerances:
Energy Change            TolE     ....  1.0000e-04 Eh
Max. Gradient            TolMAXG  ....  3.0000e-03 Eh/bohr
RMS Gradient             TolRMSG  ....  2.0000e-03 Eh/bohr
Max. Displacement        TolMAXD  ....  3.0000e-02 bohr
RMS Displacement         TolRMSD  ....  2.0000e-02 bohr

------------------------------------------------------------------------------
                        ORCA OPTIMIZATION COORDINATE SETUP
------------------------------------------------------------------------------

The optimization will be done in new redundant internal coordinates
Making redundant internal coordinates   ...  (new redundants) done
Evaluating the initial hessian          ...  (Almloef) done
Evaluating the coordinates              ...  done
Calculating the B-matrix                .... done
Calculating the G-matrix                .... done
Diagonalizing the G-matrix              .... done
Small eigenvalue found = 1.656e-02
The first mode is                       ....   30
The number of degrees of freedom        ....   54

    -----------------------------------------------------------------
                    Redundant Internal Coordinates


    -----------------------------------------------------------------
         Definition                    Initial Value    Approx d2E/dq
    -----------------------------------------------------------------
      1. B(N   1,C   0)                  1.3594         0.626162   
      2. B(N   2,C   0)                  1.2853         0.822038   
      3. B(C   3,N   2)                  1.3660         0.611066   
      4. B(N   4,C   3)                  1.2858         0.820541   
      5. B(C   6,N   5)                  1.3532         0.640618   
      6. B(O   7,C   6)                  1.2263         1.021199   
      7. B(C   8,C   6)                  1.4813         0.446788   
      8. B(C   9,C   8)                  1.3390         0.753610   
      9. B(H  10,C   0)                  1.1008         0.346128   
     10. B(H  11,N   1)                  1.0124         0.428882   
     11. B(H  12,N   1)                  1.0269         0.406670   
     12. B(H  12,O   7)                  1.7654         0.026977   
     13. B(H  13,C   3)                  1.1039         0.342174   
     14. B(H  14,N   4)                  1.0149         0.425021   
     15. B(H  15,N   5)                  1.0057         0.439647   
     16. B(H  16,N   5)                  1.0200         0.417025   
     17. B(H  16,N   2)                  1.9509         0.013646   
     18. B(H  17,C   8)                  1.0862         0.365138   
     19. B(H  18,C   9)                  1.0817         0.371266   
     20. B(H  19,C   9)                  1.0862         0.365128   
     21. A(N   1,C   0,N   2)          123.4611         0.451597   
     22. A(N   1,C   0,H  10)          111.3422         0.348985   
     23. A(N   2,C   0,H  10)          125.1953         0.365504   
     24. A(C   0,N   1,H  12)          115.6561         0.355503   
     25. A(C   0,N   1,H  11)          117.6692         0.358730   
     26. A(H  11,N   1,H  12)          111.3671         0.299844   
     27. A(C   0,N   2,H  16)          116.1701         0.220457   
     28. A(C   3,N   2,H  16)          121.1969         0.211922   
     29. A(C   0,N   2,C   3)          122.1331         0.449599   
     30. A(N   4,C   3,H  13)          117.8698         0.364673   
     31. A(N   2,C   3,H  13)          115.2487         0.346881   
     32. A(N   2,C   3,N   4)          126.8814         0.449451   
     33. A(C   3,N   4,H  14)          112.6580         0.375164   
     34. A(H  15,N   5,H  16)          117.4152         0.302241   
     35. A(C   6,N   5,H  16)          117.6515         0.358412   
     36. A(C   6,N   5,H  15)          124.6309         0.361653   
     37. A(O   7,C   6,C   8)          120.7971         0.444762   
     38. A(N   5,C   6,C   8)          117.8232         0.409128   
     39. A(N   5,C   6,O   7)          121.3796         0.471818   
     40. A(C   6,O   7,H  12)          121.0452         0.250102   
     41. A(C   6,C   8,C   9)          126.8943         0.423873   
     42. A(C   9,C   8,H  17)          119.6576         0.365696   
     43. A(C   6,C   8,H  17)          113.4479         0.334818   
     44. A(H  18,C   9,H  19)          116.5481         0.292878   
     45. A(C   8,C   9,H  19)          119.6908         0.365694   
     46. A(C   8,C   9,H  18)          123.7603         0.366740   
     47. A(N   1,H  12,O   7)          173.5384         0.201734   
     48. L(N   2,H  16,N   5,C   6, 2) 177.1732         0.186170   
     49. L(N   2,H  16,N   5,C   6, 1) 177.0917         0.186170   
     50. D(H  12,N   1,C   0,N   2)    -15.3768         0.031798   
     51. D(H  12,N   1,C   0,H  10)    165.0380         0.031798   
     52. D(H  11,N   1,C   0,H  10)     29.9470         0.031798   
     53. D(H  11,N   1,C   0,N   2)   -150.4678         0.031798   
     54. D(C   3,N   2,C   0,H  10)     -0.4698         0.058003   
     55. D(C   3,N   2,C   0,N   1)   -179.9970         0.058003   
     56. D(H  16,N   2,C   0,H  10)   -172.4445         0.058003   
     57. D(H  16,N   2,C   0,N   1)      8.0283         0.058003   
     58. D(H  13,C   3,N   2,H  16)     -8.2720         0.030169   
     59. D(N   4,C   3,N   2,H  16)    171.5918         0.030169   
     60. D(H  13,C   3,N   2,C   0)   -179.8489         0.030169   
     61. D(N   4,C   3,N   2,C   0)      0.0149         0.030169   
     62. D(H  14,N   4,C   3,H  13)   -179.6238         0.052211   
     63. D(H  14,N   4,C   3,N   2)      0.5155         0.052211   
     64. D(C   6,N   5,N   2,C   0)      6.9989         0.001500   
     65. D(H  15,N   5,N   2,C   3)     20.7199         0.001500   
     66. D(H  15,N   5,N   2,C   0)   -168.0899         0.001500   
     67. D(C   6,N   5,N   2,C   3)   -164.1913         0.001500   
     68. D(C   8,C   6,N   5,H  16)   -177.6647         0.033409   
     69. D(C   8,C   6,N   5,H  15)     -4.1604         0.033409   
     70. D(O   7,C   6,N   5,H  16)      2.3041         0.033409   
     71. D(O   7,C   6,N   5,H  15)    175.8085         0.033409   
     72. D(H  12,O   7,C   6,C   8)    165.3083         0.085984   
     73. D(H  12,O   7,C   6,N   5)    -14.6596         0.085984   
     74. D(H  17,C   8,C   6,O   7)     -0.1498         0.013611   
     75. D(H  17,C   8,C   6,N   5)    179.8192         0.013611   
     76. D(C   9,C   8,C   6,O   7)   -179.9723         0.013611   
     77. D(C   9,C   8,C   6,N   5)     -0.0033         0.013611   
     78. D(H  19,C   9,C   8,C   6)    179.9376         0.040540   
     79. D(H  18,C   9,C   8,H  17)    179.7963         0.040540   
     80. D(H  18,C   9,C   8,C   6)     -0.3911         0.040540   
     81. D(H  19,C   9,C   8,H  17)      0.1250         0.040540   
     82. D(N   1,H  12,O   7,C   6)    137.5117         0.001846   
     83. D(O   7,H  12,N   1,H  11)     27.3652         0.184926   
     84. D(O   7,H  12,N   1,C   0)   -110.4598         0.184926   
    -----------------------------------------------------------------

Number of atoms                         .... 20
Number of degrees of freedom            .... 84

         *************************************************************
         *                GEOMETRY OPTIMIZATION CYCLE   1            *
         *************************************************************
---------------------------------
CARTESIAN COORDINATES (ANGSTROEM)
---------------------------------
  C      1.655000   -0.675000   -0.084600
  N      0.962200   -1.829200   -0.273900
  N      1.105300    0.486700   -0.066700
  C      1.828200    1.629700    0.125800
  N      3.097900    1.718200    0.308400
  N     -1.864500    0.483500   -0.060700
  C     -2.451000   -0.728800    0.071500
  O     -1.784400   -1.750100    0.199200
  C     -3.931100   -0.786100    0.056600
  C     -4.774200    0.245700   -0.075400
  H      2.731100   -0.869700    0.041100
  H      1.324900   -2.671100    0.155800
  H     -0.056100   -1.760200   -0.160700
  H      1.240900    2.564400    0.122800
  H      3.559400    0.814500    0.290400
  H     -2.359600    1.342700   -0.228100
  H     -0.845300    0.516000   -0.086700
  H     -4.325800   -1.792300    0.164500
  H     -4.454300    1.273300   -0.183800
  H     -5.845900    0.068700   -0.071500

----------------------------
CARTESIAN COORDINATES (A.U.)
----------------------------
  NO LB      ZA    FRAG     MASS         X           Y           Z
   0 C     6.0000    0    12.011    3.127497   -1.275565   -0.159871
   1 N     7.0000    0    14.007    1.818294   -3.456687   -0.517596
   2 N     7.0000    0    14.007    2.088714    0.919730   -0.126045
   3 C     6.0000    0    12.011    3.454797    3.079687    0.237728
   4 N     7.0000    0    14.007    5.854183    3.246927    0.582792
   5 N     7.0000    0    14.007   -3.523394    0.913683   -0.114706
   6 C     6.0000    0    12.011   -4.631719   -1.377232    0.135115
   7 O     8.0000    0    15.999   -3.372027   -3.307210    0.376433
   8 C     6.0000    0    12.011   -7.428702   -1.485514    0.106958
   9 C     6.0000    0    12.011   -9.021931    0.464306   -0.142485
  10 H     1.0000    0     1.008    5.161031   -1.643495    0.077668
  11 H     1.0000    0     1.008    2.503698   -5.047647    0.294419
  12 H     1.0000    0     1.008   -0.106014   -3.326296   -0.303679
  13 H     1.0000    0     1.008    2.344961    4.846014    0.232058
  14 H     1.0000    0     1.008    6.726291    1.539182    0.548776
  15 H     1.0000    0     1.008   -4.458998    2.537335   -0.431047
  16 H     1.0000    0     1.008   -1.597386    0.975099   -0.163839
  17 H     1.0000    0     1.008   -8.174577   -3.386956    0.310860
  18 H     1.0000    0     1.008   -8.417407    2.406188   -0.347332
  19 H     1.0000    0     1.008  -11.047150    0.129824   -0.135115

--------------------------------
INTERNAL COORDINATES (ANGSTROEM)
--------------------------------
 C      0   0   0     0.000000000000     0.00000000     0.00000000
 N      1   0   0     1.359405741491     0.00000000     0.00000000
 N      1   2   0     1.285316066188   123.46106623     0.00000000
 C      3   1   2     1.366048922989   122.13308169   180.00296780
 N      4   3   1     1.285812233571   126.88142465     0.00000000
 N      3   1   2     2.969807785026   115.26021865     8.82650222
 C      6   3   1     1.353192661819   115.75863510     6.99887026
 O      7   6   3     1.226261203822   121.37963393     1.00873965
 C      7   6   3     1.481283669660   117.82324487   181.03988039
 C      9   7   6     1.338974551663   126.89432199     0.00000000
 H      1   2   3     1.100772360663   111.34219420   180.41477854
 H      2   1   3     1.012417399100   117.66918773   209.53218012
 H      2   1   3     1.026893436536   115.65613673   344.62319406
 H      4   3   1     1.103899624060   115.24865240   180.15105072
 H      5   4   3     1.014879273608   112.65795552     0.51553566
 H      6   3   1     1.005669632633   119.40965949   191.91006960
 H      6   3   1     1.020049454683     2.21852962   218.14964898
 H      9   7   6     1.086217722190   113.44786655   179.81920256
 H     10   9   7     1.081687722959   123.76034143   359.60888563
 H     10   9   7     1.086225160821   119.69083868   179.93756019

---------------------------
INTERNAL COORDINATES (A.U.)
---------------------------
 C      0   0   0     0.000000000000     0.00000000     0.00000000
 N      1   0   0     2.568904556299     0.00000000     0.00000000
 N      1   2   0     2.428895360624   123.46106623     0.00000000
 C      3   1   2     2.581458349988   122.13308169   180.00296780
 N      4   3   1     2.429832981094   126.88142465     0.00000000
 N      3   1   2     5.612123384086   115.26021865     8.82650222
 C      6   3   1     2.557163537269   115.75863510     6.99887026
 O      7   6   3     2.317297843877   121.37963393     1.00873965
 C      7   6   3     2.799220462306   117.82324487   181.03988039
 C      9   7   6     2.530295202932   126.89432199     0.00000000
 H      1   2   3     2.080158297443   111.34219420   180.41477854
 H      2   1   3     1.913191617515   117.66918773   209.53218012
 H      2   1   3     1.940547363774   115.65613673   344.62319406
 H      4   3   1     2.086067968812   115.24865240   180.15105072
 H      5   4   3     1.917843886113   112.65795552     0.51553566
 H      6   3   1     1.900440186877   119.40965949   191.91006960
 H      6   3   1     1.927614112407     2.21852962   218.14964898
 H      9   7   6     2.052654016751   113.44786655   179.81920256
 H     10   9   7     2.044093558817   123.76034143   359.60888563
 H     10   9   7     2.052668073726   119.69083868   179.93756019

---------------------
BASIS SET INFORMATION
---------------------
There are 4 groups of distinct atoms

 Group   1 Type C   : 17s4p1d contracted to 3s2p1d pattern {881/31/1}
 Group   2 Type N   : 17s4p1d contracted to 3s2p1d pattern {881/31/1}
 Group   3 Type O   : 17s4p1d contracted to 3s2p1d pattern {881/31/1}
 Group   4 Type H   : 4s1p contracted to 2s1p pattern {31/1}

Atom   0C    basis set group =>   1
Atom   1N    basis set group =>   2
Atom   2N    basis set group =>   2
Atom   3C    basis set group =>   1
Atom   4N    basis set group =>   2
Atom   5N    basis set group =>   2
Atom   6C    basis set group =>   1
Atom   7O    basis set group =>   3
Atom   8C    basis set group =>   1
Atom   9C    basis set group =>   1
Atom  10H    basis set group =>   4
Atom  11H    basis set group =>   4
Atom  12H    basis set group =>   4
Atom  13H    basis set group =>   4
Atom  14H    basis set group =>   4
Atom  15H    basis set group =>   4
Atom  16H    basis set group =>   4
Atom  17H    basis set group =>   4
Atom  18H    basis set group =>   4
Atom  19H    basis set group =>   4
-------------------------------
AUXILIARY BASIS SET INFORMATION
-------------------------------
There are 4 groups of distinct atoms

 Group   1 Type C   : 12s5p4d2f1g contracted to 6s4p3d1f1g pattern {711111/2111/211/2/1}
 Group   2 Type N   : 12s5p4d2f1g contracted to 6s4p3d1f1g pattern {711111/2111/211/2/1}
 Group   3 Type O   : 12s5p4d2f1g contracted to 6s4p3d1f1g pattern {711111/2111/211/2/1}
 Group   4 Type H   : 5s2p1d contracted to 3s1p1d pattern {311/2/1}

Atom   0C    basis set group =>   1
Atom   1N    basis set group =>   2
Atom   2N    basis set group =>   2
Atom   3C    basis set group =>   1
Atom   4N    basis set group =>   2
Atom   5N    basis set group =>   2
Atom   6C    basis set group =>   1
Atom   7O    basis set group =>   3
Atom   8C    basis set group =>   1
Atom   9C    basis set group =>   1
Atom  10H    basis set group =>   4
Atom  11H    basis set group =>   4
Atom  12H    basis set group =>   4
Atom  13H    basis set group =>   4
Atom  14H    basis set group =>   4
Atom  15H    basis set group =>   4
Atom  16H    basis set group =>   4
Atom  17H    basis set group =>   4
Atom  18H    basis set group =>   4
Atom  19H    basis set group =>   4


           ************************************************************
           *        Program running with 6 parallel MPI-processes     *
           *              working on a common directory               *
           ************************************************************
------------------------------------------------------------------------------
                           ORCA GTO INTEGRAL CALCULATION
                           -- RI-GTO INTEGRALS CHOSEN --
------------------------------------------------------------------------------

                         BASIS SET STATISTICS AND STARTUP INFO

Gaussian basis set:
 # of primitive gaussian shells          ...  270
 # of primitive gaussian functions       ...  410
 # of contracted shells                  ...   90
 # of contracted basis functions         ...  190
 Highest angular momentum                ...    2
 Maximum contraction depth               ...    8
Auxiliary gaussian basis set:
 # of primitive gaussian shells          ...  320
 # of primitive gaussian functions       ...  860
 # of contracted shells                  ...  200
 # of contracted aux-basis functions     ...  600
 Highest angular momentum                ...    4
 Maximum contraction depth               ...    7
Ratio of auxiliary to basis functions    ...  3.16
Integral package used                  ... LIBINT
 One Electron integrals                  ... done
 Ordering auxiliary basis shells         ... done
 Integral threshhold             Thresh  ...  2.500e-11
 Primitive cut-off               TCut    ...  2.500e-12
 Pre-screening matrix                    ... done
 Shell pair data                         ... 
 Ordering of the shell pairs             ... done (   0.001 sec) 3538 of 4095 pairs
 Determination of significant pairs      ... done (   0.000 sec)
 Creation of shell pair data             ... done (   0.001 sec)
 Storage of shell pair data              ... done (   0.002 sec)
 Shell pair data done in (   0.004 sec)
 Computing two index integrals           ... done
 Cholesky decomposition of the V-matrix  ... done


Timings:
 Total evaluation time                   ...   0.395 sec (  0.007 min)
 One electron matrix time                ...   0.050 sec (  0.001 min) = 12.6%
 Schwartz matrix evaluation time         ...   0.279 sec (  0.005 min) = 70.6%
 Two index repulsion integral time       ...   0.031 sec (  0.001 min) =  8.0%
 Cholesky decomposition of V             ...   0.010 sec (  0.000 min) =  2.6%
 Three index repulsion integral time     ...   0.000 sec (  0.000 min) =  0.0%



           ************************************************************
           *        Program running with 6 parallel MPI-processes     *
           *              working on a common directory               *
           ************************************************************
-------------------------------------------------------------------------------
                                 ORCA SCF
-------------------------------------------------------------------------------

------------
SCF SETTINGS
------------
Hamiltonian:
 Density Functional     Method          .... DFT(GTOs)
 Exchange Functional    Exchange        .... B88
   X-Alpha parameter    XAlpha          ....  0.666667
   Becke's b parameter  XBeta           ....  0.004200
 Correlation Functional Correlation     .... LYP
 LDA part of GGA corr.  LDAOpt          .... VWN-5
 Gradients option       PostSCFGGA      .... off
 Hybrid DFT is turned on
   Fraction HF Exchange ScalHFX         ....  0.200000
   Scaling of DF-GGA-X  ScalDFX         ....  0.720000
   Scaling of DF-GGA-C  ScalDFC         ....  0.810000
   Scaling of DF-LDA-C  ScalLDAC        ....  1.000000
   Perturbative correction              ....  0.000000
   NL short-range parameter             ....  4.800000
 RI-approximation to the Coulomb term is turned on
   Number of auxiliary basis functions  .... 600
   RIJ-COSX (HFX calculated with COS-X)).... on


General Settings:
 Integral files         IntName         .... AT-v/e/frag_14_c00001
 Hartree-Fock type      HFTyp           .... RHF
 Total Charge           Charge          ....    0
 Multiplicity           Mult            ....    1
 Number of Electrons    NEL             ....   76
 Basis Dimension        Dim             ....  190
 Nuclear Repulsion      ENuc            ....    491.8386586162 Eh

Convergence Acceleration:
 DIIS                   CNVDIIS         .... on
   Start iteration      DIISMaxIt       ....    12
   Startup error        DIISStart       ....  0.200000
   # of expansion vecs  DIISMaxEq       ....     5
   Bias factor          DIISBfac        ....   1.050
   Max. coefficient     DIISMaxC        ....  10.000
 Newton-Raphson         CNVNR           .... off
 SOSCF                  CNVSOSCF        .... on
   Start iteration      SOSCFMaxIt      ....   150
   Startup grad/error   SOSCFStart      ....  0.003300
 Level Shifting         CNVShift        .... on
   Level shift para.    LevelShift      ....    0.2500
   Turn off err/grad.   ShiftErr        ....    0.0010
 Zerner damping         CNVZerner       .... off
 Static damping         CNVDamp         .... on
   Fraction old density DampFac         ....    0.7000
   Max. Damping (<1)    DampMax         ....    0.9800
   Min. Damping (>=0)   DampMin         ....    0.0000
   Turn off err/grad.   DampErr         ....    0.1000
 Fernandez-Rico         CNVRico         .... off

SCF Procedure:
 Maximum # iterations   MaxIter         ....   125
 SCF integral mode      SCFMode         .... Direct
   Integral package                     .... LIBINT
 Reset frequeny         DirectResetFreq ....    20
 Integral Threshold     Thresh          ....  2.500e-11 Eh
 Primitive CutOff       TCut            ....  2.500e-12 Eh

Convergence Tolerance:
 Convergence Check Mode ConvCheckMode   .... Total+1el-Energy
 Convergence forced     ConvForced      .... 0
 Energy Change          TolE            ....  1.000e-08 Eh
 1-El. energy change                    ....  1.000e-05 Eh
 Orbital Gradient       TolG            ....  1.000e-05
 Orbital Rotation angle TolX            ....  1.000e-05
 DIIS Error             TolErr          ....  5.000e-07


Diagonalization of the overlap matrix:
Smallest eigenvalue                        ... 2.101e-03
Time for diagonalization                   ...    0.009 sec
Threshold for overlap eigenvalues          ... 1.000e-08
Number of eigenvalues below threshold      ... 0
Time for construction of square roots      ...    0.004 sec
Total time needed                          ...    0.013 sec

-------------------
DFT GRID GENERATION
-------------------

General Integration Accuracy     IntAcc      ...  4.340
Radial Grid Type                 RadialGrid  ... Gauss-Chebyshev
Angular Grid (max. acc.)         AngularGrid ... Lebedev-110
Angular grid pruning method      GridPruning ... 3 (G Style)
Weight generation scheme         WeightScheme... Becke
Basis function cutoff            BFCut       ...    1.0000e-11
Integration weight cutoff        WCut        ...    1.0000e-14
Grids for H and He will be reduced by one unit

# of grid points (after initial pruning)     ...  24744 (   0.0 sec)
# of grid points (after weights+screening)   ...  23034 (   0.0 sec)
nearest neighbour list constructed           ...    0.0 sec
Grid point re-assignment to atoms done       ...    0.0 sec
Grid point division into batches done        ...    0.0 sec
Reduced shell lists constructed in    0.1 sec

Total number of grid points                  ...    23034
Total number of batches                      ...      369
Average number of points per batch           ...       62
Average number of grid points per atom       ...     1152
Average number of shells per batch           ...    65.35 (72.61%)
Average number of basis functions per batch  ...   133.38 (70.20%)
Average number of large shells per batch     ...    47.22 (72.26%)
Average number of large basis fcns per batch ...    96.40 (72.27%)
Maximum spatial batch extension              ...  10.56,  8.06, 22.46 au
Average spatial batch extension              ...   0.33,  0.33,  0.49 au

Time for grid setup =    0.136 sec

------------------------------
INITIAL GUESS: MODEL POTENTIAL
------------------------------
Loading Hartree-Fock densities                     ... done
Calculating cut-offs                               ... done
Setting up the integral package                    ... done
Initializing the effective Hamiltonian             ... done
Starting the Coulomb interaction                   ... done (   0.1 sec)
Reading the grid                                   ... done
Mapping shells                                     ... done
Starting the XC term evaluation                    ... done (   0.1 sec)
  promolecular density results
     # of electrons  =     76.009362305
     EX              =    -63.136677840
     EC              =     -2.572960315
     EX+EC           =    -65.709638156
Transforming the Hamiltonian                       ... done (   0.0 sec)
Diagonalizing the Hamiltonian                      ... done (   0.0 sec)
Back transforming the eigenvectors                 ... done (   0.0 sec)
Now organizing SCF variables                       ... done
                      ------------------
                      INITIAL GUESS DONE (   0.4 sec)
                      ------------------
--------------------
COSX GRID GENERATION
--------------------

General Integration Accuracy     IntAcc      ...  3.340
Radial Grid Type                 RadialGrid  ... Gauss-Chebyshev
Angular Grid (max. acc.)         AngularGrid ... Lebedev-50
Angular grid pruning method      GridPruning ... 3 (G Style)
Weight generation scheme         WeightScheme... Becke
Basis function cutoff            BFCut       ...    1.0000e-11
Integration weight cutoff        WCut        ...    1.0000e-14
Grids for H and He will be reduced by one unit

# of grid points (after initial pruning)     ...   8944 (   0.0 sec)
# of grid points (after weights+screening)   ...   8399 (   0.0 sec)
nearest neighbour list constructed           ...    0.0 sec
Grid point re-assignment to atoms done       ...    0.0 sec
Grid point division into batches done        ...    0.0 sec
Reduced shell lists constructed in    0.0 sec

Total number of grid points                  ...     8399
Total number of batches                      ...      141
Average number of points per batch           ...       59
Average number of grid points per atom       ...      420
Average number of shells per batch           ...    66.28 (73.64%)
Average number of basis functions per batch  ...   136.20 (71.68%)
Average number of large shells per batch     ...    48.48 (73.14%)
Average number of large basis fcns per batch ...    99.44 (73.01%)
Maximum spatial batch extension              ...   6.09,  8.16, 19.72 au
Average spatial batch extension              ...   0.42,  0.42,  0.93 au

Overlap Fitting                  UseSFitting ... on
Constructing numerical overlap ... done (      0.0 sec)
Inverting numerical overlap    ... done (      0.0 sec)
Obtaining analytic overlap     ... done (      0.0 sec)
Final contraction and storage  ... done (      0.0 sec)


General Integration Accuracy     IntAcc      ...  3.670
Radial Grid Type                 RadialGrid  ... Gauss-Chebyshev
Angular Grid (max. acc.)         AngularGrid ... Lebedev-50
Angular grid pruning method      GridPruning ... 3 (G Style)
Weight generation scheme         WeightScheme... Becke
Basis function cutoff            BFCut       ...    1.0000e-11
Integration weight cutoff        WCut        ...    1.0000e-14
Grids for H and He will be reduced by one unit

# of grid points (after initial pruning)     ...  11444 (   0.0 sec)
# of grid points (after weights+screening)   ...  10705 (   0.0 sec)
nearest neighbour list constructed           ...    0.0 sec
Grid point re-assignment to atoms done       ...    0.0 sec
Grid point division into batches done        ...    0.0 sec
Reduced shell lists constructed in    0.0 sec

Total number of grid points                  ...    10705
Total number of batches                      ...      178
Average number of points per batch           ...       60
Average number of grid points per atom       ...      535
Average number of shells per batch           ...    66.65 (74.05%)
Average number of basis functions per batch  ...   136.52 (71.85%)
Average number of large shells per batch     ...    48.23 (72.36%)
Average number of large basis fcns per batch ...    98.74 (72.33%)
Maximum spatial batch extension              ...   5.96,  6.81, 24.70 au
Average spatial batch extension              ...   0.36,  0.39,  0.79 au

Overlap Fitting                  UseSFitting ... on
Constructing numerical overlap ... done (      0.0 sec)
Inverting numerical overlap    ... done (      0.0 sec)
Obtaining analytic overlap     ... done (      0.0 sec)
Final contraction and storage  ... done (      0.0 sec)


General Integration Accuracy     IntAcc      ...  4.010
Radial Grid Type                 RadialGrid  ... Gauss-Chebyshev
Angular Grid (max. acc.)         AngularGrid ... Lebedev-110
Angular grid pruning method      GridPruning ... 3 (G Style)
Weight generation scheme         WeightScheme... Becke
Basis function cutoff            BFCut       ...    1.0000e-11
Integration weight cutoff        WCut        ...    1.0000e-14
Grids for H and He will be reduced by one unit

# of grid points (after initial pruning)     ...  21314 (   0.0 sec)
# of grid points (after weights+screening)   ...  19872 (   0.0 sec)
nearest neighbour list constructed           ...    0.0 sec
Grid point re-assignment to atoms done       ...    0.0 sec
Grid point division into batches done        ...    0.0 sec
Reduced shell lists constructed in    0.1 sec

Total number of grid points                  ...    19872
Total number of batches                      ...      320
Average number of points per batch           ...       62
Average number of grid points per atom       ...      994
Average number of shells per batch           ...    65.62 (72.91%)
Average number of basis functions per batch  ...   134.13 (70.59%)
Average number of large shells per batch     ...    47.38 (72.21%)
Average number of large basis fcns per batch ...    96.55 (71.98%)
Maximum spatial batch extension              ...  10.56,  8.05, 20.46 au
Average spatial batch extension              ...   0.34,  0.34,  0.50 au

Overlap Fitting                  UseSFitting ... on
Constructing numerical overlap ... done (      0.0 sec)
Inverting numerical overlap    ... done (      0.0 sec)
Obtaining analytic overlap     ... done (      0.0 sec)
Final contraction and storage  ... done (      0.0 sec)

Time for X-Grid setup             =    0.393 sec
--------------
SCF ITERATIONS
--------------
ITER       Energy         Delta-E        Max-DP      RMS-DP      [F,P]     Damp
               ***  Starting incremental Fock matrix formation  ***
  0   -490.0960031187   0.000000000000 0.10124611  0.00249976  0.2787286 0.7000
  1   -490.2940467304  -0.198043611753 0.06717784  0.00167869  0.1189748 0.7000
                               ***Turning on DIIS***
  2   -490.3665689231  -0.072522192626 0.09244576  0.00248191  0.0422627 0.0000
  3   -490.4784652851  -0.111896361999 0.04616954  0.00117825  0.0775339 0.0000
  4   -490.5061127403  -0.027647455210 0.01167927  0.00036601  0.0141894 0.0000
  5   -490.5078767092  -0.001763968873 0.00462318  0.00012642  0.0061502 0.0000
                      *** Initiating the SOSCF procedure ***
                           *** Shutting down DIIS ***
                      *** Re-Reading the Fockian *** 
                      *** Removing any level shift *** 
ITER      Energy       Delta-E        Grad      Rot      Max-DP    RMS-DP
  6   -490.50800898  -0.0001322664  0.000602  0.000602  0.001825  0.000047
               *** Restarting incremental Fock matrix formation ***
  7   -490.50803439  -0.0000254116  0.000245  0.000829  0.001393  0.000033
  8   -490.50803555  -0.0000011675  0.000247  0.000742  0.000710  0.000016
  9   -490.50803668  -0.0000011291  0.000138  0.000365  0.000465  0.000012
 10   -490.50803702  -0.0000003382  0.000063  0.000060  0.000130  0.000003
 11   -490.50803715  -0.0000001235  0.000036  0.000134  0.000094  0.000003
 12   -490.50803716  -0.0000000132  0.000028  0.000045  0.000055  0.000001
 13   -490.50803717  -0.0000000130  0.000008  0.000026  0.000031  0.000001
 14   -490.50803717  -0.0000000015  0.000004  0.000009  0.000012  0.000000
 15   -490.50803717   0.0000000005  0.000003  0.000008  0.000007  0.000000
                  ***Gradient check signals convergence***
              ***Rediagonalizing the Fockian in SOSCF/NRSCF***

               *****************************************************
               *                     SUCCESS                       *
               *           SCF CONVERGED AFTER  16 CYCLES          *
               *****************************************************

Setting up the final grid:

General Integration Accuracy     IntAcc      ...  4.670
Radial Grid Type                 RadialGrid  ... Gauss-Chebyshev
Angular Grid (max. acc.)         AngularGrid ... Lebedev-302
Angular grid pruning method      GridPruning ... 3 (G Style)
Weight generation scheme         WeightScheme... Becke
Basis function cutoff            BFCut       ...    1.0000e-11
Integration weight cutoff        WCut        ...    1.0000e-14
Grids for H and He will be reduced by one unit

# of grid points (after initial pruning)     ...  96060 (   0.0 sec)
# of grid points (after weights+screening)   ...  88071 (   0.1 sec)
nearest neighbour list constructed           ...    0.0 sec
Grid point re-assignment to atoms done       ...    0.0 sec
Grid point division into batches done        ...    0.4 sec
Reduced shell lists constructed in    0.6 sec

Total number of grid points                  ...    88071
Total number of batches                      ...     1389
Average number of points per batch           ...       63
Average number of grid points per atom       ...     4404
Average number of shells per batch           ...    61.51 (68.34%)
Average number of basis functions per batch  ...   124.87 (65.72%)
Average number of large shells per batch     ...    43.94 (71.44%)
Average number of large basis fcns per batch ...    89.31 (71.52%)
Maximum spatial batch extension              ...  11.46, 10.28, 16.89 au
Average spatial batch extension              ...   0.23,  0.24,  0.29 au

Final grid set up in    0.8 sec
Final integration                            ... done (   0.4 sec)
Change in XC energy                          ...    -0.000346543
Integrated number of electrons               ...    75.999864867
Previous integrated no of electrons          ...    76.003239493
Old exchange energy                            =    -12.829283113 Eh
New exchange energy                            =    -12.828875368 Eh
Exchange energy change after final integration =      0.000407745 Eh
Total energy after final integration           =   -490.507975973 Eh
Final COS-X integration done in                =     2.703 sec

----------------
TOTAL SCF ENERGY
----------------

Total Energy       :         -490.50797597 Eh          -13347.40059 eV

Components:
Nuclear Repulsion  :          491.83865862 Eh           13383.61031 eV
Electronic Energy  :         -982.34663459 Eh          -26731.01091 eV
One Electron Energy:        -1641.04290743 Eh          -44655.04773 eV
Two Electron Energy:          658.69627284 Eh           17924.03682 eV

Virial components:
Potential Energy   :         -978.22732016 Eh          -26618.91866 eV
Kinetic Energy     :          487.71934418 Eh           13271.51807 eV
Virial Ratio       :            2.00571770


DFT components:
N(Alpha)           :       37.999932433439 electrons
N(Beta)            :       37.999932433439 electrons
N(Total)           :       75.999864866877 electrons
E(X)               :      -51.009825889240 Eh       
E(C)               :       -3.041988740343 Eh       
E(XC)              :      -54.051814629583 Eh       

---------------
SCF CONVERGENCE
---------------

  Last Energy change         ...   -1.7993e-09  Tolerance :   1.0000e-08
  Last MAX-Density change    ...    1.8042e-13  Tolerance :   1.0000e-07
  Last RMS-Density change    ...    1.2495e-15  Tolerance :   5.0000e-09
  Last Orbital Gradient      ...    2.4057e-06  Tolerance :   1.0000e-05
  Last Orbital Rotation      ...    5.0610e-06  Tolerance :   1.0000e-05

             **** THE GBW FILE WAS UPDATED (AT-v/e/frag_14_c00001.gbw) ****
             **** DENSITY FILE WAS UPDATED (AT-v/e/frag_14_c00001.scfp.tmp) ****
             **** ENERGY FILE WAS UPDATED (AT-v/e/frag_14_c00001.en.tmp) ****
----------------
ORBITAL ENERGIES
----------------

  NO   OCC          E(Eh)            E(eV) 
   0   2.0000     -19.111333      -520.0458 
   1   2.0000     -14.346301      -390.3827 
   2   2.0000     -14.335236      -390.0816 
   3   2.0000     -14.311821      -389.4445 
   4   2.0000     -14.288365      -388.8062 
   5   2.0000     -10.291721      -280.0520 
   6   2.0000     -10.275018      -279.5975 
   7   2.0000     -10.239229      -278.6236 
   8   2.0000     -10.211796      -277.8771 
   9   2.0000     -10.205940      -277.7178 
  10   2.0000      -1.042232       -28.3606 
  11   2.0000      -0.968784       -26.3619 
  12   2.0000      -0.908059       -24.7095 
  13   2.0000      -0.897717       -24.4281 
  14   2.0000      -0.833513       -22.6811 
  15   2.0000      -0.790676       -21.5154 
  16   2.0000      -0.666744       -18.1430 
  17   2.0000      -0.647342       -17.6151 
  18   2.0000      -0.582741       -15.8572 
  19   2.0000      -0.574026       -15.6200 
  20   2.0000      -0.549832       -14.9617 
  21   2.0000      -0.536663       -14.6034 
  22   2.0000      -0.491419       -13.3722 
  23   2.0000      -0.487369       -13.2620 
  24   2.0000      -0.459076       -12.4921 
  25   2.0000      -0.447778       -12.1846 
  26   2.0000      -0.420205       -11.4344 
  27   2.0000      -0.417261       -11.3543 
  28   2.0000      -0.408919       -11.1272 
  29   2.0000      -0.402694       -10.9579 
  30   2.0000      -0.384095       -10.4518 
  31   2.0000      -0.324538        -8.8311 
  32   2.0000      -0.290922        -7.9164 
  33   2.0000      -0.288753        -7.8574 
  34   2.0000      -0.265144        -7.2149 
  35   2.0000      -0.262561        -7.1447 
  36   2.0000      -0.239881        -6.5275 
  37   2.0000      -0.232695        -6.3320 
  38   0.0000      -0.047081        -1.2811 
  39   0.0000      -0.032342        -0.8801 
  40   0.0000       0.048051         1.3075 
  41   0.0000       0.055220         1.5026 
  42   0.0000       0.080236         2.1833 
  43   0.0000       0.082783         2.2526 
  44   0.0000       0.087762         2.3881 
  45   0.0000       0.094553         2.5729 
  46   0.0000       0.106290         2.8923 
  47   0.0000       0.134077         3.6484 
  48   0.0000       0.168560         4.5867 
  49   0.0000       0.180518         4.9121 
  50   0.0000       0.203732         5.5438 
  51   0.0000       0.211302         5.7498 
  52   0.0000       0.259906         7.0724 
  53   0.0000       0.279918         7.6170 
  54   0.0000       0.293387         7.9835 
  55   0.0000       0.313855         8.5404 
  56   0.0000       0.327679         8.9166 
  57   0.0000       0.354570         9.6483 
  58   0.0000       0.376739        10.2516 
  59   0.0000       0.400304        10.8928 
  60   0.0000       0.436277        11.8717 
  61   0.0000       0.445972        12.1355 
  62   0.0000       0.453151        12.3309 
  63   0.0000       0.454706        12.3732 
  64   0.0000       0.479146        13.0382 
  65   0.0000       0.491921        13.3858 
  66   0.0000       0.492918        13.4130 
  67   0.0000       0.525745        14.3063 
  68   0.0000       0.528767        14.3885 
  69   0.0000       0.537557        14.6277 
  70   0.0000       0.541586        14.7373 
  71   0.0000       0.555627        15.1194 
  72   0.0000       0.562369        15.3028 
  73   0.0000       0.582405        15.8481 
  74   0.0000       0.593079        16.1385 
  75   0.0000       0.609540        16.5864 
  76   0.0000       0.631234        17.1767 
  77   0.0000       0.645374        17.5615 
  78   0.0000       0.656351        17.8602 
  79   0.0000       0.684765        18.6334 
  80   0.0000       0.694311        18.8932 
  81   0.0000       0.704776        19.1779 
  82   0.0000       0.736233        20.0339 
  83   0.0000       0.743192        20.2233 
  84   0.0000       0.751302        20.4440 
  85   0.0000       0.769375        20.9358 
  86   0.0000       0.781438        21.2640 
  87   0.0000       0.804966        21.9042 
  88   0.0000       0.815778        22.1985 
  89   0.0000       0.842749        22.9324 
  90   0.0000       0.856947        23.3187 
  91   0.0000       0.871891        23.7254 
  92   0.0000       0.894631        24.3441 
  93   0.0000       0.903336        24.5810 
  94   0.0000       0.919377        25.0175 
  95   0.0000       0.947004        25.7693 
  96   0.0000       0.962294        26.1853 
  97   0.0000       0.975069        26.5330 
  98   0.0000       0.986036        26.8314 
  99   0.0000       1.008842        27.4520 
 100   0.0000       1.022003        27.8101 
 101   0.0000       1.051096        28.6018 
 102   0.0000       1.055592        28.7241 
 103   0.0000       1.071793        29.1650 
 104   0.0000       1.089535        29.6478 
 105   0.0000       1.097689        29.8696 
 106   0.0000       1.121492        30.5173 
 107   0.0000       1.139536        31.0083 
 108   0.0000       1.157093        31.4861 
 109   0.0000       1.168152        31.7870 
 110   0.0000       1.187534        32.3144 
 111   0.0000       1.223987        33.3064 
 112   0.0000       1.257229        34.2110 
 113   0.0000       1.295017        35.2392 
 114   0.0000       1.312018        35.7018 
 115   0.0000       1.348402        36.6919 
 116   0.0000       1.354558        36.8594 
 117   0.0000       1.370591        37.2957 
 118   0.0000       1.432493        38.9801 
 119   0.0000       1.441675        39.2300 
 120   0.0000       1.460046        39.7299 
 121   0.0000       1.467210        39.9248 
 122   0.0000       1.471615        40.0447 
 123   0.0000       1.489980        40.5444 
 124   0.0000       1.507763        41.0283 
 125   0.0000       1.512277        41.1512 
 126   0.0000       1.531952        41.6865 
 127   0.0000       1.546487        42.0821 
 128   0.0000       1.575481        42.8710 
 129   0.0000       1.618690        44.0468 
 130   0.0000       1.624357        44.2010 
 131   0.0000       1.644742        44.7557 
 132   0.0000       1.657896        45.1136 
 133   0.0000       1.673476        45.5376 
 134   0.0000       1.683358        45.8065 
 135   0.0000       1.694834        46.1188 
 136   0.0000       1.702012        46.3141 
 137   0.0000       1.717415        46.7332 
 138   0.0000       1.731561        47.1182 
 139   0.0000       1.755451        47.7682 
 140   0.0000       1.768672        48.1280 
 141   0.0000       1.810164        49.2571 
 142   0.0000       1.859465        50.5986 
 143   0.0000       1.862559        50.6828 
 144   0.0000       1.879725        51.1499 
 145   0.0000       1.909538        51.9612 
 146   0.0000       1.924160        52.3590 
 147   0.0000       1.984468        54.0001 
 148   0.0000       1.994254        54.2664 
 149   0.0000       2.017123        54.8887 
 150   0.0000       2.024902        55.1004 
 151   0.0000       2.067161        56.2503 
 152   0.0000       2.099846        57.1397 
 153   0.0000       2.137548        58.1656 
 154   0.0000       2.162883        58.8550 
 155   0.0000       2.180972        59.3473 
 156   0.0000       2.195569        59.7445 
 157   0.0000       2.200963        59.8912 
 158   0.0000       2.251870        61.2765 
 159   0.0000       2.263735        61.5994 
 160   0.0000       2.273326        61.8603 
 161   0.0000       2.299614        62.5757 
 162   0.0000       2.303329        62.6768 
 163   0.0000       2.310343        62.8676 
 164   0.0000       2.346644        63.8554 
 165   0.0000       2.401188        65.3397 
 166   0.0000       2.419411        65.8355 
 167   0.0000       2.426171        66.0195 
 168   0.0000       2.504593        68.1534 
 169   0.0000       2.513280        68.3898 
 170   0.0000       2.519805        68.5674 
 171   0.0000       2.595370        70.6236 
 172   0.0000       2.610352        71.0313 
 173   0.0000       2.665024        72.5190 
 174   0.0000       2.685454        73.0749 
 175   0.0000       2.721333        74.0512 
 176   0.0000       2.736629        74.4675 
 177   0.0000       2.752527        74.9001 
 178   0.0000       2.786687        75.8296 
 179   0.0000       2.815396        76.6108 
 180   0.0000       2.906887        79.1004 
 181   0.0000       2.940571        80.0170 
 182   0.0000       3.002885        81.7127 
 183   0.0000       3.076240        83.7087 
 184   0.0000       3.092539        84.1523 
 185   0.0000       3.158093        85.9361 
 186   0.0000       3.300646        89.8151 
 187   0.0000       3.337865        90.8279 
 188   0.0000       3.475412        94.5708 
 189   0.0000       3.551813        96.6497 
-------
TIMINGS
-------

Total SCF time: 0 days 0 hours 0 min 30 sec 

Total time                  ....      30.655 sec
Sum of individual times     ....      30.551 sec  ( 99.7%)

Fock matrix formation       ....      28.614 sec  ( 93.3%)
  Split-RI-J                ....       4.688 sec  ( 16.4% of F)
  Chain of spheres X        ....      21.951 sec  ( 76.7% of F)
  COS-X 1 center corr.      ....       0.000 sec  (  0.0% of F)
  XC integration            ....       1.901 sec  (  6.6% of F)
    Basis function eval.    ....       0.712 sec  ( 37.5% of XC)
    Density eval.           ....       0.320 sec  ( 16.9% of XC)
    XC-Functional eval.     ....       0.086 sec  (  4.5% of XC)
    XC-Potential eval.      ....       0.588 sec  ( 30.9% of XC)
Diagonalization             ....       0.079 sec  (  0.3%)
Density matrix formation    ....       0.035 sec  (  0.1%)
Population analysis         ....       0.000 sec  (  0.0%)
Initial guess               ....       0.287 sec  (  0.9%)
Orbital Transformation      ....       0.000 sec  (  0.0%)
Orbital Orthonormalization  ....       0.000 sec  (  0.0%)
DIIS solution               ....       0.026 sec  (  0.1%)
SOSCF solution              ....       0.162 sec  (  0.5%)
Grid generation             ....       1.349 sec  (  4.4%)


-------------------------------------------------------------------------------
                          DFT DISPERSION CORRECTION                            
                                                                               
                              DFTD3 V3.1  Rev 1                                
                          USING Becke-Johnson damping                          
-------------------------------------------------------------------------------
The B3LYP functional is recognized
Active option DFTDOPT                   ...         4   

molecular C6(AA) [au] = 3965.724677 


            DFT-D V3
 parameters
 s6 scaling factor         :     1.0000 
 a1 scaling factor         :     0.3981 
 s8 scaling factor         :     1.9889 
 a2 scaling factor         :     4.4211 
 ad hoc parameters k1-k3   :    16.0000     1.3333    -4.0000 

 Edisp/kcal,au: -18.003482734876  -0.028690372908 
 E6   /kcal   :  -8.846803356 
 E8   /kcal   :  -9.156679379 
 % E8         :  50.860600215 

-------------------------   ----------------
Dispersion correction           -0.028690373
-------------------------   ----------------


-------------------------   --------------------
FINAL SINGLE POINT ENERGY      -490.536666345611
-------------------------   --------------------



           ************************************************************
           *        Program running with 6 parallel MPI-processes     *
           *              working on a common directory               *
           ************************************************************
------------------------------------------------------------------------------
                         ORCA SCF GRADIENT CALCULATION
------------------------------------------------------------------------------

Gradient of the Kohn-Sham DFT energy:
Kohn-Sham wavefunction type      ... RKS
Hartree-Fock exchange scaling    ...    0.200
Number of operators              ...    1
Number of atoms                  ...   20
Basis set dimensions             ...  190
Integral neglect threshold       ... 2.5e-11
Integral primitive cutoff        ... 2.5e-12

Nuclear repulsion gradient       ... done
One Electron Gradient            ... done
Pre-screening matrix             ... done
RI-J gradient                    ... done
COSX-gradient                    ... done
Exchange-correlation gradient    ... done
Dispersion correction            ... done

------------------
CARTESIAN GRADIENT
------------------

   1   C   :   -0.000853820    0.025782262   -0.002482454
   2   N   :   -0.000197263   -0.012696598   -0.003280441
   3   N   :    0.036196791    0.014759260    0.007459735
   4   C   :   -0.038182088   -0.007762732   -0.003169686
   5   N   :    0.007328194   -0.027458113   -0.001582786
   6   N   :    0.001707221    0.002577648   -0.000923708
   7   C   :    0.002286409   -0.025975360    0.003591738
   8   O   :   -0.004450464    0.020760019   -0.001846464
   9   C   :    0.007510960   -0.003640059    0.000530566
  10   C   :   -0.001903435    0.010410878   -0.001850669
  11   H   :   -0.004871986   -0.005088973   -0.000820775
  12   H   :   -0.008105952    0.001318435    0.003009364
  13   H   :    0.008521878    0.000217654    0.001404969
  14   H   :   -0.000472181    0.003826114   -0.000130960
  15   H   :   -0.002808484    0.009352342    0.000399086
  16   H   :    0.006159417   -0.000669482    0.000309948
  17   H   :   -0.011202477   -0.001898601   -0.000047382
  18   H   :    0.000346343    0.005078542   -0.000474969
  19   H   :   -0.003154806   -0.007608254    0.000599467
  20   H   :    0.005099201   -0.000184387    0.000316724

Difference to translation invariance:
           :   -0.0010465428    0.0011005931    0.0010113043

Norm of the cartesian gradient     ...    0.0819047088
RMS gradient                       ...    0.0105738524
MAX gradient                       ...    0.0381820883

-------
TIMINGS
-------

Total SCF gradient time            ...        6.003 sec

One electron gradient       ....       0.112 sec  (  1.9%)
Prescreening matrices       ....       0.129 sec  (  2.1%)
RI-J Coulomb gradient       ....       0.954 sec  ( 15.9%)
COSX gradient               ....       2.825 sec  ( 47.1%)
XC gradient                 ....       1.468 sec  ( 24.4%)
------------------------------------------------------------------------------
                         ORCA GEOMETRY RELAXATION STEP
------------------------------------------------------------------------------

Reading the OPT-File                    .... done
Getting information on internals        .... done
Copying old internal coords+grads       .... done
Making the new internal coordinates     .... (new redundants).... done
Validating the new internal coordinates .... (new redundants).... done
Calculating the B-matrix                .... done
Calculating the G,G- and P matrices     .... done
Transforming gradient to internals      .... done
Projecting the internal gradient        .... done
Number of atoms                         ....  20
Number of internal coordinates          ....  84
Current Energy                          ....  -490.536666346 Eh
Current gradient norm                   ....     0.081904709 Eh/bohr
Maximum allowed component of the step   ....  0.300
Current trust radius                    ....  0.300
Evaluating the initial hessian          ....  (Almloef) done
Projecting the Hessian                  .... done
Forming the augmented Hessian           .... done
Diagonalizing the augmented Hessian     .... done
Last element of RFO vector              ....  0.981437044
Lowest eigenvalues of augmented Hessian:
 -0.009284349  0.010745916  0.013620892  0.018526488  0.020362937
Length of the computed step             ....  0.195412013
The final length of the internal step   ....  0.195412013
Converting the step to cartesian space:
 Initial RMS(Int)=    0.0213211986
Transforming coordinates:
 Iter   0:  RMS(Cart)=    0.0580893566 RMS(Int)=    0.9682986111
 Iter   1:  RMS(Cart)=    0.0015441301 RMS(Int)=    0.0010487437
 Iter   2:  RMS(Cart)=    0.0001055642 RMS(Int)=    0.0000590160
 Iter   3:  RMS(Cart)=    0.0000212658 RMS(Int)=    0.0000108335
 Iter   4:  RMS(Cart)=    0.0000098350 RMS(Int)=    0.0000044662
 Iter   5:  RMS(Cart)=    0.0000046740 RMS(Int)=    0.0000021247
 Iter   6:  RMS(Cart)=    0.0000022180 RMS(Int)=    0.0000010064
 Iter   7:  RMS(Cart)=    0.0000010522 RMS(Int)=    0.0000004776
 Iter   8:  RMS(Cart)=    0.0000004992 RMS(Int)=    0.0000002266
 Iter   9:  RMS(Cart)=    0.0000002368 RMS(Int)=    0.0000001075
 Iter  10:  RMS(Cart)=    0.0000001124 RMS(Int)=    0.0000000510
 Iter  11:  RMS(Cart)=    0.0000000533 RMS(Int)=    0.0000000242
done
Storing new coordinates                 .... done

                                .--------------------.
          ----------------------|Geometry convergence|-------------------------
          Item                value                   Tolerance       Converged
          ---------------------------------------------------------------------
          RMS gradient        0.0071250388            0.0020000000      NO
          MAX gradient        0.0373016353            0.0030000000      NO
          RMS step            0.0213211986            0.0200000000      NO
          MAX step            0.0728343134            0.0300000000      NO
          ........................................................
          Max(Bonds)      0.0318      Max(Angles)    3.91
          Max(Dihed)        4.17      Max(Improp)    0.00
          ---------------------------------------------------------------------

The optimization has not yet converged - more geometry cycles are needed


    ---------------------------------------------------------------------------
                         Redundant Internal Coordinates
                            (Angstroem and degrees)

        Definition                    Value    dE/dq     Step     New-Value
    ----------------------------------------------------------------------------
     1. B(N   1,C   0)                1.3594  0.007959 -0.0071    1.3523   
     2. B(N   2,C   0)                1.2853 -0.010228  0.0061    1.2914   
     3. B(C   3,N   2)                1.3660 -0.037302  0.0318    1.3979   
     4. B(N   4,C   3)                1.2858  0.003159 -0.0020    1.2838   
     5. B(C   6,N   5)                1.3532  0.000022  0.0006    1.3538   
     6. B(O   7,C   6)                1.2263 -0.020410  0.0109    1.2371   
     7. B(C   8,C   6)                1.4813 -0.008290  0.0096    1.4909   
     8. B(C   9,C   8)                1.3390  0.001928 -0.0013    1.3376   
     9. B(H  10,C   0)                1.1008 -0.003916  0.0058    1.1066   
    10. B(H  11,N   1)                1.0124 -0.002761  0.0033    1.0158   
    11. B(H  12,N   1)                1.0269 -0.010221  0.0130    1.0399   
    12. B(H  12,O   7)                1.7654 -0.001902  0.0257    1.7911   
    13. B(H  13,C   3)                1.1039  0.003384 -0.0051    1.0988   
    14. B(H  14,N   4)                1.0149 -0.009484  0.0116    1.0264   
    15. B(H  15,N   5)                1.0057 -0.003720  0.0044    1.0101   
    16. B(H  16,N   5)                1.0200 -0.012124  0.0151    1.0352   
    17. B(H  16,N   2)                1.9509 -0.001022  0.0235    1.9744   
    18. B(H  17,C   8)                1.0862 -0.004868  0.0069    1.0931   
    19. B(H  18,C   9)                1.0817 -0.008227  0.0114    1.0931   
    20. B(H  19,C   9)                1.0862 -0.005049  0.0071    1.0934   
    21. A(N   1,C   0,N   2)          123.46  0.001699   -0.48    122.98   
    22. A(N   1,C   0,H  10)          111.34 -0.007070    1.21    112.55   
    23. A(N   2,C   0,H  10)          125.20  0.005384   -0.74    124.45   
    24. A(C   0,N   1,H  12)          115.66 -0.003721    0.78    116.43   
    25. A(C   0,N   1,H  11)          117.67  0.005497   -0.69    116.98   
    26. A(H  11,N   1,H  12)          111.37 -0.004042    1.57    112.93   
    27. A(C   0,N   2,H  16)          116.17 -0.002306    0.31    116.48   
    28. A(C   3,N   2,H  16)          121.20  0.002201   -0.37    120.83   
    29. A(C   0,N   2,C   3)          122.13 -0.000019    0.15    122.28   
    30. A(N   4,C   3,H  13)          117.87  0.012865   -1.64    116.23   
    31. A(N   2,C   3,H  13)          115.25  0.016272   -2.27    112.98   
    32. A(N   2,C   3,N   4)          126.88 -0.029137    3.91    130.79   
    33. A(C   3,N   4,H  14)          112.66  0.003380   -0.50    112.15   
    34. A(H  15,N   5,H  16)          117.42 -0.004304    0.59    118.00   
    35. A(C   6,N   5,H  16)          117.65 -0.000972    0.33    117.98   
    36. A(C   6,N   5,H  15)          124.63  0.005350   -1.00    123.63   
    37. A(O   7,C   6,C   8)          120.80  0.007759   -1.12    119.67   
    38. A(N   5,C   6,C   8)          117.82 -0.006642    0.75    118.57   
    39. A(N   5,C   6,O   7)          121.38 -0.001117    0.37    121.75   
    40. A(C   6,O   7,H  12)          121.05  0.003794   -0.43    120.61   
    41. A(C   6,C   8,C   9)          126.89 -0.001673    0.24    127.14   
    42. A(C   9,C   8,H  17)          119.66 -0.000685    0.13    119.78   
    43. A(C   6,C   8,H  17)          113.45  0.002358   -0.37    113.08   
    44. A(H  18,C   9,H  19)          116.55  0.000258   -0.05    116.50   
    45. A(C   8,C   9,H  19)          119.69 -0.001937    0.30    119.99   
    46. A(C   8,C   9,H  18)          123.76  0.001679   -0.25    123.51   
    47. A(N   1,H  12,O   7)          173.54 -0.000205    0.73    174.27   
    48. L(N   2,H  16,N   5,C   6, 2) 177.17 -0.000427    0.06    177.23   
    49. L(N   2,H  16,N   5,C   6, 1) 177.09  0.002367   -0.50    176.60   
    50. D(H  12,N   1,C   0,N   2)    -15.38  0.000934   -1.47    -16.85   
    51. D(H  12,N   1,C   0,H  10)    165.04 -0.000929    0.63    165.67   
    52. D(H  11,N   1,C   0,H  10)     29.95  0.003676   -2.07     27.87   
    53. D(H  11,N   1,C   0,N   2)   -150.47  0.005539   -4.17   -154.64   
    54. D(C   3,N   2,C   0,H  10)     -0.47  0.000845   -0.07     -0.54   
    55. D(C   3,N   2,C   0,N   1)   -180.00 -0.001224    2.31   -177.69   
    56. D(H  16,N   2,C   0,H  10)   -172.44  0.001658   -0.78   -173.23   
    57. D(H  16,N   2,C   0,N   1)      8.03 -0.000411    1.60      9.63   
    58. D(H  13,C   3,N   2,H  16)     -8.27 -0.000698    0.48     -7.79   
    59. D(N   4,C   3,N   2,H  16)    171.59 -0.000288   -0.02    171.57   
    60. D(H  13,C   3,N   2,C   0)   -179.85  0.000521   -0.32   -180.17   
    61. D(N   4,C   3,N   2,C   0)      0.01  0.000931   -0.82     -0.81   
    62. D(H  14,N   4,C   3,H  13)   -179.62  0.000328   -0.37   -179.99   
    63. D(H  14,N   4,C   3,N   2)      0.52 -0.000094    0.15      0.66   
    64. D(C   6,N   5,N   2,C   0)      7.00  0.000993   -1.77      5.22   
    65. D(H  15,N   5,N   2,C   3)     20.72  0.000629   -1.64     19.08   
    66. D(H  15,N   5,N   2,C   0)   -168.09 -0.000209   -0.89   -168.98   
    67. D(C   6,N   5,N   2,C   3)   -164.19  0.001831   -2.53   -166.72   
    68. D(C   8,C   6,N   5,H  16)   -177.66 -0.000316    0.53   -177.14   
    69. D(C   8,C   6,N   5,H  15)     -4.16  0.000173   -0.29     -4.45   
    70. D(O   7,C   6,N   5,H  16)      2.30 -0.000192    0.54      2.85   
    71. D(O   7,C   6,N   5,H  15)    175.81  0.000297   -0.27    175.54   
    72. D(H  12,O   7,C   6,C   8)    165.31 -0.001219    0.68    165.99   
    73. D(H  12,O   7,C   6,N   5)    -14.66 -0.001343    0.66    -14.00   
    74. D(H  17,C   8,C   6,O   7)     -0.15  0.000140   -0.55     -0.70   
    75. D(H  17,C   8,C   6,N   5)    179.82  0.000260   -0.54    179.28   
    76. D(C   9,C   8,C   6,O   7)   -179.97  0.000227   -0.68   -180.66   
    77. D(C   9,C   8,C   6,N   5)     -0.00  0.000347   -0.67     -0.67   
    78. D(H  19,C   9,C   8,C   6)    179.94  0.000207   -0.22    179.72   
    79. D(H  18,C   9,C   8,H  17)    179.80  0.000099   -0.13    179.66   
    80. D(H  18,C   9,C   8,C   6)     -0.39  0.000011    0.01     -0.39   
    81. D(H  19,C   9,C   8,H  17)      0.12  0.000294   -0.36     -0.23   
    82. D(N   1,H  12,O   7,C   6)    137.51  0.000807    0.24    137.75   
    83. D(O   7,H  12,N   1,H  11)     27.37  0.000161    0.83     28.19   
    84. D(O   7,H  12,N   1,C   0)   -110.46  0.000302   -0.74   -111.20   
    ----------------------------------------------------------------------------

         *************************************************************
         *                GEOMETRY OPTIMIZATION CYCLE   2            *
         *************************************************************
---------------------------------
CARTESIAN COORDINATES (ANGSTROEM)
---------------------------------
  C      1.671885   -0.712152   -0.057997
  N      0.967433   -1.848410   -0.261429
  N      1.129785    0.459913   -0.055411
  C      1.878914    1.628522    0.109496
  N      3.138223    1.798720    0.292007
  N     -1.878092    0.488953   -0.045793
  C     -2.477703   -0.719655    0.066146
  O     -1.823213   -1.762539    0.186733
  C     -3.967112   -0.781730    0.041633
  C     -4.816448    0.245706   -0.069165
  H      2.756109   -0.900406    0.058575
  H      1.351267   -2.704058    0.128814
  H     -0.064218   -1.779679   -0.150378
  H      1.264426    2.539094    0.084301
  H      3.651143    0.909720    0.304605
  H     -2.380477    1.349624   -0.210311
  H     -0.843704    0.517188   -0.072951
  H     -4.354986   -1.800229    0.125739
  H     -4.495840    1.287518   -0.151418
  H     -5.894693    0.064798   -0.079197

----------------------------
CARTESIAN COORDINATES (A.U.)
----------------------------
  NO LB      ZA    FRAG     MASS         X           Y           Z
   0 C     6.0000    0    12.011    3.159405   -1.345772   -0.109599
   1 N     7.0000    0    14.007    1.828183   -3.492989   -0.494029
   2 N     7.0000    0    14.007    2.134985    0.869110   -0.104712
   3 C     6.0000    0    12.011    3.550634    3.077461    0.206918
   4 N     7.0000    0    14.007    5.930382    3.399089    0.551814
   5 N     7.0000    0    14.007   -3.549080    0.923987   -0.086536
   6 C     6.0000    0    12.011   -4.682180   -1.359950    0.124998
   7 O     8.0000    0    15.999   -3.445373   -3.330716    0.352875
   8 C     6.0000    0    12.011   -7.496755   -1.477255    0.078675
   9 C     6.0000    0    12.011   -9.101768    0.464317   -0.130703
  10 H     1.0000    0     1.008    5.208291   -1.701521    0.110691
  11 H     1.0000    0     1.008    2.553525   -5.109929    0.243423
  12 H     1.0000    0     1.008   -0.121354   -3.363107   -0.284174
  13 H     1.0000    0     1.008    2.389419    4.798193    0.159305
  14 H     1.0000    0     1.008    6.899661    1.719122    0.575619
  15 H     1.0000    0     1.008   -4.498449    2.550420   -0.397430
  16 H     1.0000    0     1.008   -1.594370    0.977344   -0.137858
  17 H     1.0000    0     1.008   -8.229731   -3.401940    0.237613
  18 H     1.0000    0     1.008   -8.495907    2.433057   -0.286139
  19 H     1.0000    0     1.008  -11.139355    0.122450   -0.149660

--------------------------------
INTERNAL COORDINATES (ANGSTROEM)
--------------------------------
 C      0   0   0     0.000000000000     0.00000000     0.00000000
 N      1   0   0     1.352302068293     0.00000000     0.00000000
 N      1   2   0     1.291361906711   122.97272661     0.00000000
 C      3   1   2     1.397868339721   122.27828452   182.30660790
 N      4   3   1     1.283797634726   130.78994603   359.19929816
 N      3   1   2     3.008033082604   115.37468321    10.40263920
 C      6   3   1     1.353807960977   115.75537808     5.21879576
 O      7   6   3     1.237136748375   121.75684150     1.56081419
 C      7   6   3     1.490903018018   118.57272598   181.57792530
 C      9   7   6     1.337637289873   127.13519680   359.32897116
 H      1   2   3     1.106603332041   112.53821101   182.53288454
 H      2   1   3     1.015751759028   116.94633480   205.35749463
 H      2   1   3     1.039883953632   116.43632675   343.15370541
 H      4   3   1     1.098804714584   112.97810340   179.83904255
 H      5   4   3     1.026434413850   112.15418232     0.66535108
 H      6   3   1     1.010055041225   120.33552946   191.02742442
 H      6   3   1     1.035129543236     2.49447056   212.00728880
 H      9   7   6     1.093097321971   113.07985003   179.28252706
 H     10   9   7     1.093127589241   123.50741383   359.61458634
 H     10   9   7     1.093361641314   119.98969347   179.71854863

---------------------------
INTERNAL COORDINATES (A.U.)
---------------------------
 C      0   0   0     0.000000000000     0.00000000     0.00000000
 N      1   0   0     2.555480559410     0.00000000     0.00000000
 N      1   2   0     2.440320343461   122.97272661     0.00000000
 C      3   1   2     2.641588333351   122.27828452   182.30660790
 N      4   3   1     2.426025941009   130.78994603   359.19929816
 N      3   1   2     5.684358727896   115.37468321    10.40263920
 C      6   3   1     2.558326284168   115.75537808     5.21879576
 O      7   6   3     2.337849644639   121.75684150     1.56081419
 C      7   6   3     2.817398396290   118.57272598   181.57792530
 C      9   7   6     2.527768144380   127.13519680   359.32897116
 H      1   2   3     2.091177236442   112.53821101   182.53288454
 H      2   1   3     1.919492644611   116.94633480   205.35749463
 H      2   1   3     1.965095883425   116.43632675   343.15370541
 H      4   3   1     2.076439985226   112.97810340   179.83904255
 H      5   4   3     1.939679936608   112.15418232     0.66535108
 H      6   3   1     1.908727408101   120.33552946   191.02742442
 H      6   3   1     1.956111349848     2.49447056   212.00728880
 H      9   7   6     2.065654576248   113.07985003   179.28252706
 H     10   9   7     2.065711773099   123.50741383   359.61458634
 H     10   9   7     2.066154067419   119.98969347   179.71854863



           ************************************************************
           *        Program running with 6 parallel MPI-processes     *
           *              working on a common directory               *
           ************************************************************
 One Electron integrals                  ... done
 Pre-screening matrix                    ... done


           ************************************************************
           *        Program running with 6 parallel MPI-processes     *
           *              working on a common directory               *
           ************************************************************

Diagonalization of the overlap matrix:
Smallest eigenvalue                        ... 2.134e-03
Time for diagonalization                   ...    0.010 sec
Threshold for overlap eigenvalues          ... 1.000e-08
Number of eigenvalues below threshold      ... 0
Time for construction of square roots      ...    0.005 sec
Total time needed                          ...    0.014 sec

-------------------
DFT GRID GENERATION
-------------------

General Integration Accuracy     IntAcc      ...  4.340
Radial Grid Type                 RadialGrid  ... Gauss-Chebyshev
Angular Grid (max. acc.)         AngularGrid ... Lebedev-110
Angular grid pruning method      GridPruning ... 3 (G Style)
Weight generation scheme         WeightScheme... Becke
Basis function cutoff            BFCut       ...    1.0000e-11
Integration weight cutoff        WCut        ...    1.0000e-14
Grids for H and He will be reduced by one unit

# of grid points (after initial pruning)     ...  24744 (   0.0 sec)
# of grid points (after weights+screening)   ...  23046 (   0.0 sec)
nearest neighbour list constructed           ...    0.0 sec
Grid point re-assignment to atoms done       ...    0.0 sec
Grid point division into batches done        ...    0.0 sec
Reduced shell lists constructed in    0.1 sec

Total number of grid points                  ...    23046
Total number of batches                      ...      369
Average number of points per batch           ...       62
Average number of grid points per atom       ...     1152
Average number of shells per batch           ...    64.98 (72.20%)
Average number of basis functions per batch  ...   132.57 (69.77%)
Average number of large shells per batch     ...    46.84 (72.08%)
Average number of large basis fcns per batch ...    95.48 (72.02%)
Maximum spatial batch extension              ...  10.66,  8.24, 22.76 au
Average spatial batch extension              ...   0.32,  0.34,  0.50 au

Time for grid setup =    0.138 sec

--------------------
COSX GRID GENERATION
--------------------

General Integration Accuracy     IntAcc      ...  3.340
Radial Grid Type                 RadialGrid  ... Gauss-Chebyshev
Angular Grid (max. acc.)         AngularGrid ... Lebedev-50
Angular grid pruning method      GridPruning ... 3 (G Style)
Weight generation scheme         WeightScheme... Becke
Basis function cutoff            BFCut       ...    1.0000e-11
Integration weight cutoff        WCut        ...    1.0000e-14
Grids for H and He will be reduced by one unit

# of grid points (after initial pruning)     ...   8944 (   0.0 sec)
# of grid points (after weights+screening)   ...   8402 (   0.0 sec)
nearest neighbour list constructed           ...    0.0 sec
Grid point re-assignment to atoms done       ...    0.0 sec
Grid point division into batches done        ...    0.0 sec
Reduced shell lists constructed in    0.0 sec

Total number of grid points                  ...     8402
Total number of batches                      ...      141
Average number of points per batch           ...       59
Average number of grid points per atom       ...      420
Average number of shells per batch           ...    66.44 (73.82%)
Average number of basis functions per batch  ...   136.36 (71.77%)
Average number of large shells per batch     ...    48.12 (72.43%)
Average number of large basis fcns per batch ...    98.52 (72.25%)
Maximum spatial batch extension              ...   6.05,  5.61, 18.59 au
Average spatial batch extension              ...   0.40,  0.42,  0.84 au

Overlap Fitting                  UseSFitting ... on
Constructing numerical overlap ... done (      0.0 sec)
Inverting numerical overlap    ... done (      0.0 sec)
Obtaining analytic overlap     ... done (      0.0 sec)
Final contraction and storage  ... done (      0.0 sec)


General Integration Accuracy     IntAcc      ...  3.670
Radial Grid Type                 RadialGrid  ... Gauss-Chebyshev
Angular Grid (max. acc.)         AngularGrid ... Lebedev-50
Angular grid pruning method      GridPruning ... 3 (G Style)
Weight generation scheme         WeightScheme... Becke
Basis function cutoff            BFCut       ...    1.0000e-11
Integration weight cutoff        WCut        ...    1.0000e-14
Grids for H and He will be reduced by one unit

# of grid points (after initial pruning)     ...  11444 (   0.0 sec)
# of grid points (after weights+screening)   ...  10719 (   0.0 sec)
nearest neighbour list constructed           ...    0.0 sec
Grid point re-assignment to atoms done       ...    0.0 sec
Grid point division into batches done        ...    0.0 sec
Reduced shell lists constructed in    0.0 sec

Total number of grid points                  ...    10719
Total number of batches                      ...      178
Average number of points per batch           ...       60
Average number of grid points per atom       ...      536
Average number of shells per batch           ...    66.16 (73.51%)
Average number of basis functions per batch  ...   135.45 (71.29%)
Average number of large shells per batch     ...    47.87 (72.35%)
Average number of large basis fcns per batch ...    98.00 (72.35%)
[...]

# of grid points (after initial pruning)     ...  21314 (   0.0 sec)
# of grid points (after weights+screening)   ...  19885 (   0.0 sec)
nearest neighbour list constructed           ...    0.0 sec
Grid point re-assignment to atoms done       ...    0.0 sec
Grid point division into batches done        ...    0.0 sec
Reduced shell lists constructed in    0.1 sec

Total number of grid points                  ...    19885
Total number of batches                      ...      324
Average number of points per batch           ...       61
Average number of grid points per atom       ...      994
Average number of shells per batch           ...    65.65 (72.95%)
Average number of basis functions per batch  ...   134.24 (70.65%)
Average number of large shells per batch     ...    47.55 (72.42%)
Average number of large basis fcns per batch ...    97.04 (72.29%)
Maximum spatial batch extension              ...   5.44,  6.47, 17.78 au
Average spatial batch extension              ...   0.31,  0.33,  0.54 au

Overlap Fitting                  UseSFitting ... on
Constructing numerical overlap ... done (      0.0 sec)
Inverting numerical overlap    ... done (      0.0 sec)
Obtaining analytic overlap     ... done (      0.0 sec)
Final contraction and storage  ... done (      0.0 sec)

Time for X-Grid setup             =    0.397 sec
--------------
SCF ITERATIONS
--------------
ITER       Energy         Delta-E        Max-DP      RMS-DP      [F,P]     Damp
               ***  Starting incremental Fock matrix formation  ***
                      *** Initiating the SOSCF procedure ***
                      *** Re-Reading the Fockian *** 
                      *** Removing any level shift *** 
ITER      Energy       Delta-E        Grad      Rot      Max-DP    RMS-DP
  0   -490.51593340 -490.5159334041  0.001406  0.001406  0.006575  0.000119
               *** Restarting incremental Fock matrix formation ***
  1   -490.51612618  -0.0001927728  0.000774  0.002881  0.001824  0.000057
  2   -490.51615352  -0.0000273462  0.000285  0.001176  0.001133  0.000033
  3   -490.51614875   0.0000047711  0.000619  0.000675  0.000817  0.000020
  4   -490.51615567  -0.0000069200  0.000020  0.000050  0.000075  0.000002
  5   -490.51615566   0.0000000085  0.000028  0.000034  0.000050  0.000001
  6   -490.51615568  -0.0000000181  0.000004  0.000011  0.000016  0.000000
  7   -490.51615568   0.0000000047  0.000005  0.000008  0.000013  0.000000
                  ***Gradient check signals convergence***
              ***Rediagonalizing the Fockian in SOSCF/NRSCF***

               *****************************************************
               *                     SUCCESS                       *
               *           SCF CONVERGED AFTER   8 CYCLES          *
               *****************************************************

Setting up the final grid:

General Integration Accuracy     IntAcc      ...  4.670
Radial Grid Type                 RadialGrid  ... Gauss-Chebyshev
Angular Grid (max. acc.)         AngularGrid ... Lebedev-302
Angular grid pruning method      GridPruning ... 3 (G Style)
Weight generation scheme         WeightScheme... Becke
Basis function cutoff            BFCut       ...    1.0000e-11
Integration weight cutoff        WCut        ...    1.0000e-14
Grids for H and He will be reduced by one unit

# of grid points (after initial pruning)     ...  96060 (   0.0 sec)
# of grid points (after weights+screening)   ...  88128 (   0.1 sec)
nearest neighbour list constructed           ...    0.0 sec
Grid point re-assignment to atoms done       ...    0.0 sec
Grid point division into batches done        ...    0.4 sec
Reduced shell lists constructed in    0.6 sec

Total number of grid points                  ...    88128
Total number of batches                      ...     1385
Average number of points per batch           ...       63
Average number of grid points per atom       ...     4406
Average number of shells per batch           ...    62.03 (68.93%)
Average number of basis functions per batch  ...   126.16 (66.40%)
Average number of large shells per batch     ...    43.94 (70.83%)
Average number of large basis fcns per batch ...    89.32 (70.80%)
Maximum spatial batch extension              ...   7.71,  8.28, 16.88 au
Average spatial batch extension              ...   0.22,  0.22,  0.29 au

Final grid set up in    0.7 sec
Final integration                            ... done (   0.4 sec)
Change in XC energy                          ...    -0.001007191
Integrated number of electrons               ...    75.999915478
Previous integrated no of electrons          ...    75.999363193
Old exchange energy                            =    -12.814497549 Eh
New exchange energy                            =    -12.814125198 Eh
Exchange energy change after final integration =      0.000372351 Eh
Total energy after final integration           =   -490.516790520 Eh
Final COS-X integration done in                =     2.790 sec

----------------
TOTAL SCF ENERGY
----------------

Total Energy       :         -490.51679052 Eh          -13347.64045 eV

Components:
Nuclear Repulsion  :          489.22225163 Eh           13312.41426 eV
Electronic Energy  :         -979.73904215 Eh          -26660.05471 eV
One Electron Energy:        -1635.95586206 Eh          -44516.62219 eV
Two Electron Energy:          656.21681992 Eh           17856.56748 eV

Virial components:
Potential Energy   :         -977.97165979 Eh          -26611.96179 eV
Kinetic Energy     :          487.45486927 Eh           13264.32134 eV
Virial Ratio       :            2.00628145


DFT components:
N(Alpha)           :       37.999957739215 electrons
N(Beta)            :       37.999957739215 electrons
N(Total)           :       75.999915478429 electrons
E(X)               :      -50.959442302105 Eh       
E(C)               :       -3.039095153064 Eh       
E(XC)              :      -53.998537455169 Eh       

---------------
SCF CONVERGENCE
---------------

  Last Energy change         ...   -3.0543e-09  Tolerance :   1.0000e-08
  Last MAX-Density change    ...    3.9657e-13  Tolerance :   1.0000e-07
  Last RMS-Density change    ...    2.3419e-15  Tolerance :   5.0000e-09
  Last Orbital Gradient      ...    2.3687e-06  Tolerance :   1.0000e-05
  Last Orbital Rotation      ...    4.8635e-06  Tolerance :   1.0000e-05

             **** THE GBW FILE WAS UPDATED (AT-v/e/frag_14_c00001.gbw) ****
             **** DENSITY FILE WAS UPDATED (AT-v/e/frag_14_c00001.scfp.tmp) ****
             **** ENERGY FILE WAS UPDATED (AT-v/e/frag_14_c00001.en.tmp) ****
----------------
ORBITAL ENERGIES
----------------

  NO   OCC          E(Eh)            E(eV) 
   0   2.0000     -19.111165      -520.0412 
   1   2.0000     -14.351924      -390.5357 
   2   2.0000     -14.339195      -390.1893 
   3   2.0000     -14.310941      -389.4205 
   4   2.0000     -14.293175      -388.9371 
   5   2.0000     -10.292510      -280.0734 
   6   2.0000     -10.274284      -279.5775 
   7   2.0000     -10.238444      -278.6022 
   8   2.0000     -10.211867      -277.8790 
   9   2.0000     -10.206321      -277.7281 
  10   2.0000      -1.033118       -28.1126 
  11   2.0000      -0.962909       -26.2021 
  12   2.0000      -0.904745       -24.6194 
  13   2.0000      -0.898809       -24.4578 
  14   2.0000      -0.835642       -22.7390 
  15   2.0000      -0.787545       -21.4302 
  16   2.0000      -0.656524       -17.8649 
  17   2.0000      -0.641800       -17.4643 
  18   2.0000      -0.582068       -15.8389 
  19   2.0000      -0.570156       -15.5147 
  20   2.0000      -0.550865       -14.9898 
  21   2.0000      -0.535366       -14.5681 
  22   2.0000      -0.492701       -13.4071 
  23   2.0000      -0.482805       -13.1378 
  24   2.0000      -0.459389       -12.5006 
  25   2.0000      -0.452119       -12.3028 
  26   2.0000      -0.413891       -11.2625 
  27   2.0000      -0.411063       -11.1856 
  28   2.0000      -0.403658       -10.9841 
  29   2.0000      -0.399323       -10.8661 
  30   2.0000      -0.379343       -10.3225 
  31   2.0000      -0.323812        -8.8114 
  32   2.0000      -0.291528        -7.9329 
  33   2.0000      -0.287491        -7.8230 
  34   2.0000      -0.266656        -7.2561 
  35   2.0000      -0.261481        -7.1152 
  36   2.0000      -0.245964        -6.6930 
  37   2.0000      -0.231620        -6.3027 
  38   0.0000      -0.044890        -1.2215 
  39   0.0000      -0.022864        -0.6222 
  40   0.0000       0.046767         1.2726 
  41   0.0000       0.051103         1.3906 
  42   0.0000       0.078306         2.1308 
  43   0.0000       0.082324         2.2401 
  44   0.0000       0.082709         2.2506 
  45   0.0000       0.091184         2.4812 
  46   0.0000       0.108496         2.9523 
  47   0.0000       0.134182         3.6513 
  48   0.0000       0.165375         4.5001 
  49   0.0000       0.181188         4.9304 
  50   0.0000       0.201167         5.4740 
  51   0.0000       0.209410         5.6983 
  52   0.0000       0.248866         6.7720 
  53   0.0000       0.278735         7.5848 
  54   0.0000       0.294340         8.0094 
  55   0.0000       0.312728         8.5098 
  56   0.0000       0.324521         8.8307 
  57   0.0000       0.345599         9.4042 
  58   0.0000       0.373522        10.1640 
  59   0.0000       0.401006        10.9119 
  60   0.0000       0.443594        12.0708 
  61   0.0000       0.447004        12.1636 
  62   0.0000       0.448838        12.2135 
  63   0.0000       0.457273        12.4430 
  64   0.0000       0.465474        12.6662 
  65   0.0000       0.484701        13.1894 
  66   0.0000       0.493816        13.4374 
  67   0.0000       0.520147        14.1539 
  68   0.0000       0.530706        14.4412 
  69   0.0000       0.538267        14.6470 
  70   0.0000       0.540409        14.7053 
  71   0.0000       0.545945        14.8559 
  72   0.0000       0.554601        15.0914 
  73   0.0000       0.581873        15.8336 
  74   0.0000       0.588559        16.0155 
  75   0.0000       0.594291        16.1715 
  76   0.0000       0.619838        16.8667 
  77   0.0000       0.640729        17.4351 
  78   0.0000       0.656075        17.8527 
  79   0.0000       0.683546        18.6002 
  80   0.0000       0.694090        18.8871 
  81   0.0000       0.709107        19.2958 
  82   0.0000       0.737046        20.0561 
  83   0.0000       0.741207        20.1693 
  84   0.0000       0.746887        20.3238 
  85   0.0000       0.769340        20.9348 
  86   0.0000       0.781868        21.2757 
  87   0.0000       0.803002        21.8508 
  88   0.0000       0.808367        21.9968 
  89   0.0000       0.850796        23.1513 
  90   0.0000       0.858087        23.3497 
  91   0.0000       0.868931        23.6448 
  92   0.0000       0.891754        24.2659 
  93   0.0000       0.906451        24.6658 
  94   0.0000       0.934579        25.4312 
  95   0.0000       0.962040        26.1784 
  96   0.0000       0.966357        26.2959 
  97   0.0000       0.976378        26.5686 
  98   0.0000       0.981982        26.7211 
  99   0.0000       0.997192        27.1350 
 100   0.0000       1.018501        27.7148 
 101   0.0000       1.040747        28.3202 
 102   0.0000       1.052969        28.6527 
 103   0.0000       1.077359        29.3164 
 104   0.0000       1.089480        29.6463 
 105   0.0000       1.112226        30.2652 
 106   0.0000       1.116332        30.3770 
 107   0.0000       1.133112        30.8335 
 108   0.0000       1.147350        31.2210 
 109   0.0000       1.168840        31.8058 
 110   0.0000       1.190357        32.3912 
 111   0.0000       1.217633        33.1335 
 112   0.0000       1.243033        33.8247 
 113   0.0000       1.285458        34.9791 
 114   0.0000       1.325166        36.0596 
 115   0.0000       1.347172        36.6584 
 116   0.0000       1.359069        36.9822 
 117   0.0000       1.366733        37.1907 
 118   0.0000       1.438211        39.1357 
 119   0.0000       1.449337        39.4385 
 120   0.0000       1.464885        39.8615 
 121   0.0000       1.474167        40.1141 
 122   0.0000       1.482657        40.3451 
 123   0.0000       1.488036        40.4915 
 124   0.0000       1.493579        40.6424 
 125   0.0000       1.510918        41.1142 
 126   0.0000       1.535140        41.7733 
 127   0.0000       1.556656        42.3588 
 128   0.0000       1.570537        42.7365 
 129   0.0000       1.602969        43.6190 
 130   0.0000       1.614754        43.9397 
 131   0.0000       1.625233        44.2248 
 132   0.0000       1.632755        44.4295 
 133   0.0000       1.669979        45.4424 
 134   0.0000       1.678670        45.6789 
 135   0.0000       1.693859        46.0922 
 136   0.0000       1.699568        46.2476 
 137   0.0000       1.706733        46.4426 
 138   0.0000       1.712979        46.6125 
 139   0.0000       1.751965        47.6734 
 140   0.0000       1.769076        48.1390 
 141   0.0000       1.838649        50.0322 
 142   0.0000       1.859570        50.6015 
 143   0.0000       1.868534        50.8454 
 144   0.0000       1.883937        51.2645 
 145   0.0000       1.889306        51.4106 
 146   0.0000       1.926150        52.4132 
 147   0.0000       1.977318        53.8056 
 148   0.0000       1.987604        54.0855 
 149   0.0000       2.012302        54.7575 
 150   0.0000       2.036767        55.4232 
 151   0.0000       2.063015        56.1375 
 152   0.0000       2.104761        57.2735 
 153   0.0000       2.123390        57.7804 
 154   0.0000       2.140328        58.2413 
 155   0.0000       2.150903        58.5291 
 156   0.0000       2.177849        59.2623 
 157   0.0000       2.182536        59.3898 
 158   0.0000       2.247286        61.1518 
 159   0.0000       2.258191        61.4485 
 160   0.0000       2.274439        61.8906 
 161   0.0000       2.296361        62.4872 
 162   0.0000       2.298330        62.5407 
 163   0.0000       2.320510        63.1443 
 164   0.0000       2.345731        63.8306 
 165   0.0000       2.395833        65.1939 
 166   0.0000       2.401910        65.3593 
 167   0.0000       2.412201        65.6393 
 168   0.0000       2.455240        66.8105 
 169   0.0000       2.494814        67.8873 
 170   0.0000       2.515765        68.4574 
 171   0.0000       2.565354        69.8068 
 172   0.0000       2.610410        71.0329 
 173   0.0000       2.647438        72.0405 
 174   0.0000       2.667379        72.5831 
 175   0.0000       2.714324        73.8605 
 176   0.0000       2.727085        74.2078 
 177   0.0000       2.741603        74.6028 
 178   0.0000       2.774629        75.5015 
 179   0.0000       2.800957        76.2179 
 180   0.0000       2.896215        78.8100 
 181   0.0000       2.915420        79.3326 
 182   0.0000       3.006594        81.8136 
 183   0.0000       3.070252        83.5458 
 184   0.0000       3.087029        84.0023 
 185   0.0000       3.101727        84.4023 
 186   0.0000       3.289685        89.5169 
 187   0.0000       3.347543        91.0913 
 188   0.0000       3.450460        93.8918 
 189   0.0000       3.527272        95.9819 
-------
TIMINGS
-------

Total SCF time: 0 days 0 hours 0 min 18 sec 

Total time                  ....      18.689 sec
Sum of individual times     ....      18.595 sec  ( 99.5%)

Fock matrix formation       ....      17.076 sec  ( 91.4%)
  Split-RI-J                ....       2.589 sec  ( 15.2% of F)
  Chain of spheres X        ....      13.316 sec  ( 78.0% of F)
  COS-X 1 center corr.      ....       0.000 sec  (  0.0% of F)
  XC integration            ....       1.130 sec  (  6.6% of F)
    Basis function eval.    ....       0.447 sec  ( 39.6% of XC)
    Density eval.           ....       0.198 sec  ( 17.5% of XC)
    XC-Functional eval.     ....       0.052 sec  (  4.6% of XC)
    XC-Potential eval.      ....       0.352 sec  ( 31.1% of XC)
Diagonalization             ....       0.011 sec  (  0.1%)
Density matrix formation    ....       0.057 sec  (  0.3%)
Population analysis         ....       0.000 sec  (  0.0%)
Initial guess               ....       0.012 sec  (  0.1%)
Orbital Transformation      ....       0.000 sec  (  0.0%)
Orbital Orthonormalization  ....       0.008 sec  (  0.0%)
DIIS solution               ....       0.002 sec  (  0.0%)
SOSCF solution              ....       0.152 sec  (  0.8%)
Grid generation             ....       1.284 sec  (  6.9%)


-------------------------------------------------------------------------------
                          DFT DISPERSION CORRECTION                            
                                                                               
                              DFTD3 V3.1  Rev 1                                
                          USING Becke-Johnson damping                          
-------------------------------------------------------------------------------
The B3LYP functional is recognized
Active option DFTDOPT                   ...         4   

molecular C6(AA) [au] = 3967.473824 


            DFT-D V3
 parameters
 s6 scaling factor         :     1.0000 
 a1 scaling factor         :     0.3981 
 s8 scaling factor         :     1.9889 
 a2 scaling factor         :     4.4211 
 ad hoc parameters k1-k3   :    16.0000     1.3333    -4.0000 

 Edisp/kcal,au: -17.908353433137  -0.028538774733 
 E6   /kcal   :  -8.795567826 
 E8   /kcal   :  -9.112785607 
 % E8         :  50.885669872 

-------------------------   ----------------
Dispersion correction           -0.028538775
-------------------------   ----------------


-------------------------   --------------------
FINAL SINGLE POINT ENERGY      -490.545329294406
-------------------------   --------------------

                                *** OPTIMIZATION RUN DONE ***

                            ***************************************
                            *     ORCA property calculations      *
                            ***************************************

                                    ---------------------
                                    Active property flags
                                    ---------------------
   (+) Dipole Moment


------------------------------------------------------------------------------
                       ORCA ELECTRIC PROPERTIES CALCULATION
------------------------------------------------------------------------------

Dipole Moment Calculation                       ... on
Quadrupole Moment Calculation                   ... off
Polarizability Calculation                      ... off
GBWName                                         ... AT-v/e/frag_14_c00001.gbw
Electron density file                           ... AT-v/e/frag_14_c00001.scfp.tmp
The origin for moment calculation is the CENTER OF MASS  = (-1.125105, -0.269119  0.043542)

-------------
DIPOLE MOMENT
-------------
                                X             Y             Z
Electronic contribution:      1.92959      -1.42131       0.09463
Nuclear contribution   :     -2.80018       0.83527      -0.18483
                        -----------------------------------------
Total Dipole Moment    :     -0.87059      -0.58604      -0.09020
                        -----------------------------------------
Magnitude (a.u.)       :      1.05333
Magnitude (Debye)      :      2.67735


Timings for individual modules:

Sum of individual times         ...      209.629 sec (=   3.494 min)
GTO integral calculation        ...        6.116 sec (=   0.102 min)   2.9 %
SCF iterations                  ...      164.462 sec (=   2.741 min)  78.5 %
SCF Gradient evaluation         ...       38.400 sec (=   0.640 min)  18.3 %
Geometry relaxation             ...        0.651 sec (=   0.011 min)   0.3 %
                             ****ORCA TERMINATED NORMALLY****
TOTAL RUN TIME: 0 days 0 hours 3 minutes 31 seconds 705 msec
