
                                 *****************
                                 * O   R   C   A *
                                 *****************

           --- An Ab Initio, DFT and Semiempirical electronic structure package ---

                  #######################################################
                  #                        -***-                        #
                  #  Department of molecular theory and spectroscopy    #
                  #              Directorship: Frank Neese              #
                  # Max Planck Institute for Chemical Energy Conversion #
                  #                  D-45470 Muelheim/Ruhr              #
                  #                       Germany                       #
                  #                                                     #
                  #                  All rights reserved                #
                  #                        -***-                        #
                  #######################################################


                         Program Version 4.0.1.2 - RELEASE -


 With contributions from (in alphabetic order):
   Daniel Aravena         : Magnetic Properties
   Michael Atanasov       : Ab Initio Ligand Field Theory
   Ute Becker             : Parallelization
   Martin Brehm           : Molecular dynamics
   Dmytro Bykov           : SCF Hessian
   Vijay G. Chilkuri      : MRCI spin determinant printing
   Dipayan Datta          : RHF DLPNO-CCSD density
   Achintya Kumar Dutta   : EOM-CC, STEOM-CC
   Dmitry Ganyushin       : Spin-Orbit,Spin-Spin,Magnetic field MRCI
   Yang Guo               : DLPNO-NEVPT2, CIM, IAO-localization
   Andreas Hansen         : Spin unrestricted coupled pair/coupled cluster methods
   Lee Huntington         : MR-EOM, pCC
   Robert Izsak           : Overlap fitted RIJCOSX, COSX-SCS-MP3, EOM
   Christian Kollmar      : KDIIS, OOCD, Brueckner-CCSD(T), CCSD density
   Simone Kossmann        : Meta GGA functionals, TD-DFT gradient, OOMP2, MP2 Hessian
   Martin Krupicka        : AUTO-CI
   Dagmar Lenk            : GEPOL surface
   Dimitrios Liakos       : Extrapolation schemes; parallel MDCI
   Dimitrios Manganas     : ROCIS; embedding schemes
   Dimitrios Pantazis     : SARC Basis sets
   Taras Petrenko         : DFT Hessian,TD-DFT gradient, ASA, ECA, R-Raman, ABS, FL, XAS/XES, NRVS
   Peter Pinski           : DLPNO-MP2
   Christoph Reimann      : Effective Core Potentials
   Marius Retegan         : Local ZFS, SOC
   Christoph Riplinger    : Optimizer, TS searches, QM/MM, DLPNO-CCSD(T), (RO)-DLPNO pert. Triples
   Tobias Risthaus        : Range-separated hybrids, TD-DFT gradient, RPA, STAB
   Michael Roemelt        : Restricted open shell CIS
   Masaaki Saitow         : Open-shell DLPNO
   Barbara Sandhoefer     : DKH picture change effects
   Kantharuban Sivalingam : CASSCF convergence, NEVPT2, FIC-MRCI
   Georgi Stoychev        : AutoAux
   Boris Wezisla          : Elementary symmetry handling
   Frank Wennmohs         : Technical directorship


 We gratefully acknowledge several colleagues who have allowed us to
 interface, adapt or use parts of their codes:
   Stefan Grimme, W. Hujo, H. Kruse,             : VdW corrections, initial TS optimization,
                  C. Bannwarth                     DFT functionals, gCP, sTDA/sTD-DF
   Ed Valeev                                     : LibInt (2-el integral package), F12 methods
   Garnet Chan, S. Sharma, J. Yang, R. Olivares  : DMRG
   Ulf Ekstrom                                   : XCFun DFT Library
   Mihaly Kallay                                 : mrcc  (arbitrary order and MRCC methods)
   Andreas Klamt, Michael Diedenhofen            : otool_cosmo (COSMO solvation model)
   Jiri Pittner, Ondrej Demel                    : Mk-CCSD
   Frank Weinhold                                : gennbo (NPA and NBO analysis)
   Christopher J. Cramer and Donald G. Truhlar   : smd solvation model


 Your calculation uses the libint2 library for the computation of 2-el integrals
 For citations please refer to: http://libint.valeyev.net

 This ORCA versions uses:
   CBLAS   interface :  Fast vector & matrix operations
   LAPACKE interface :  Fast linear algebra routines
   SCALAPACK package :  Parallel linear algebra routines


Your calculation utilizes the atom-pairwise dispersion correction
with the Becke-Johnson damping scheme (D3BJ)
Cite in your paper:
S.Grimme, S.Ehrlich, L.Goerigk, J Comput Chem, (2011), 32, 1456–1465 
S.Grimme, J.Antony, S.Ehrlich and H.Krieg, J.Chem.Phys., 132, (2010), 154104 
   

Your calculation utilizes the basis: cc-pVDZ 
       H, B-Ne : Obtained from the ccRepo (grant-hill.group.shef.ac.uk/ccrepo) Feb. 2017
                 T. H. Dunning, Jr., J. Chem. Phys. 90, 1007 (1989)
            He : Obtained from the ccRepo (grant-hill.group.shef.ac.uk/ccrepo) Feb. 2017
                 D. E. Woon, T. H. Dunning, Jr., J. Chem. Phys. 100, 2975 (1994)
  Li-Be, Na-Mg : Obtained from the ccRepo (grant-hill.group.shef.ac.uk/ccrepo) Feb. 2017
                 B. P. Prascher, D. E. Woon, K. A. Peterson, T. H. Dunning, Jr., A. K. Wilson, Theor. Chem. Acc. 128, 69 (2011)
         Al-Ar : Obtained from the ccRepo (grant-hill.group.shef.ac.uk/ccrepo) Feb. 2017
                 D. E. Woon, T. H. Dunning, Jr., J. Chem. Phys. 98, 1358 (1993)
            Ca : Obtained from the Peterson Research Group Website (tyr0.chem.wsu.edu/~kipeters) Feb. 2017
                 J. Koput, K. A. Peterson, J. Phys. Chem. 106, 9595 (2002)
         Sc-Zn : Obtained from the ccRepo (grant-hill.group.shef.ac.uk/ccrepo) Feb. 2017
                 N. B. Balabanov, K. A. Peterson, J. Chem. Phys. 123, 064107 (2005)
                 N. B. Balabanov, K. A. Peterson, J. Chem. Phys. 125, 074110 (2006)
         Ga-Kr : Obtained from the ccRepo (grant-hill.group.shef.ac.uk/ccrepo) Feb. 2017
                 A. K. Wilson, D. E. Woon, K. A. Peterson, T. H. Dunning, Jr., J. Chem. Phys. 110, 7667 (1999)

Your calculation utilizes the auxiliary basis: def2/J
   F. Weigend, Phys. Chem. Chem. Phys. 8, 1057 (2006).

================================================================================
                                        WARNINGS
                       Please study these warnings very carefully!
================================================================================

Warning: TCutStore was < 0. Adjusted to Thresh (uncritical)

WARNING: Geometry Optimization
  ===> : Switching off AutoStart
         For restart on a previous wavefunction, please use MOREAD

INFO   : the flag for use of LIBINT has been found!

================================================================================
                                       INPUT FILE
================================================================================
NAME = AT-v/e/frag_26_c00001.com
|  1> %pal nprocs 6 end
|  2> %maxcore 1000
|  3> ! b3lyp TIGHTSCF nopop D3BJ
|  4> ! cc-pvdz def2/J RIJCOSX
|  5> ! Opt
|  6> 
|  7> %geom
|  8> maxiter 60
|  9> TolE 1e-4
| 10> TolRMSG 2e-3
| 11> TolMaxG 3e-3
| 12> TolRMSD 2e-2
| 13> TolMaxD 3e-2
| 14> end
| 15> 
| 16> *xyz 0 1
| 17> C 1.6361 -0.6939 -0.0805
| 18> N 1.0537 -1.9099 -0.2571
| 19> N 0.9705 0.4037 -0.0226
| 20> C 1.5816 1.6168 0.1529
| 21> N 2.8444 1.8262 0.2834
| 22> N -3.8738 1.5875 -0.1017
| 23> C -2.5195 1.5806 -0.1243
| 24> O -1.8979 2.633 -0.2232
| 25> N -1.8956 0.3714 -0.0398
| 26> C -2.4171 -0.8908 0.0681
| 27> O -1.7247 -1.9015 0.1392
| 28> H 2.7321 -0.7792 -0.0047
| 29> H 1.5165 -2.7204 0.1363
| 30> H 0.0378 -1.9451 -0.1269
| 31> H 0.907 2.4898 0.1869
| 32> H 3.3922 0.9744 0.2337
| 33> H -4.3332 1.0064 0.5851
| 34> H -4.2418 2.5327 -0.1118
| 35> H -0.8783 0.4203 -0.0758
| 36> H -3.5167 -0.9332 0.0761
| 37> *
| 38> 
| 39> 
| 40>                          ****END OF INPUT****
================================================================================

                       *****************************
                       * Geometry Optimization Run *
                       *****************************

Geometry optimization settings:
Update method            Update   .... BFGS
Choice of coordinates    CoordSys .... Redundant Internals
Initial Hessian          InHess   .... Almoef's Model

Convergence Tolerances:
Energy Change            TolE     ....  1.0000e-04 Eh
Max. Gradient            TolMAXG  ....  3.0000e-03 Eh/bohr
RMS Gradient             TolRMSG  ....  2.0000e-03 Eh/bohr
Max. Displacement        TolMAXD  ....  3.0000e-02 bohr
RMS Displacement         TolRMSD  ....  2.0000e-02 bohr

------------------------------------------------------------------------------
                        ORCA OPTIMIZATION COORDINATE SETUP
------------------------------------------------------------------------------

The optimization will be done in new redundant internal coordinates
Making redundant internal coordinates   ...  (new redundants) done
Evaluating the initial hessian          ...  (Almloef) done
Evaluating the coordinates              ...  done
Calculating the B-matrix                .... done
Calculating the G-matrix                .... done
Diagonalizing the G-matrix              .... done
Small eigenvalue found = 1.623e-02
The first mode is                       ....   30
The number of degrees of freedom        ....   54

    -----------------------------------------------------------------
                    Redundant Internal Coordinates


    -----------------------------------------------------------------
         Definition                    Initial Value    Approx d2E/dq
    -----------------------------------------------------------------
      1. B(N   1,C   0)                  1.3598         0.625275   
      2. B(N   2,C   0)                  1.2850         0.823139   
      3. B(C   3,N   2)                  1.3696         0.603105   
      4. B(N   4,C   3)                  1.2867         0.817933   
      5. B(C   6,N   5)                  1.3545         0.637534   
      6. B(O   7,C   6)                  1.2263         1.021203   
      7. B(N   8,C   6)                  1.3633         0.617293   
      8. B(C   9,N   8)                  1.3699         0.602379   
      9. B(O  10,C   9)                  1.2272         1.017732   
     10. B(H  11,C   0)                  1.1019         0.344666   
     11. B(H  12,N   1)                  1.0128         0.428207   
     12. B(H  13,N   1)                  1.0248         0.409789   
     13. B(H  13,O  10)                  1.7830         0.025288   
     14. B(H  14,C   3)                  1.1038         0.342302   
     15. B(H  15,N   4)                  1.0140         0.426456   
     16. B(H  16,N   5)                  1.0102         0.432456   
     17. B(H  17,N   5)                  1.0144         0.425830   
     18. B(H  18,N   2)                  1.8496         0.019797   
     19. B(H  18,N   8)                  1.0191         0.418465   
     20. B(H  19,C   9)                  1.1004         0.346543   
     21. A(N   1,C   0,N   2)          123.2205         0.451590   
     22. A(N   2,C   0,H  11)          125.3265         0.365323   
     23. A(N   1,C   0,H  11)          111.4511         0.348652   
     24. A(H  12,N   1,H  13)          112.0938         0.300134   
     25. A(C   0,N   1,H  12)          117.9988         0.358548   
     26. A(C   0,N   1,H  13)          116.0268         0.355879   
     27. A(C   0,N   2,H  18)          121.6098         0.232050   
     28. A(C   3,N   2,H  18)          116.2135         0.222326   
     29. A(C   0,N   2,C   3)          122.0887         0.448640   
     30. A(N   2,C   3,H  14)          115.5805         0.346139   
     31. A(N   2,C   3,N   4)          126.5158         0.448124   
     32. A(N   4,C   3,H  14)          117.9033         0.364497   
     33. A(C   3,N   4,H  15)          112.8638         0.375177   
     34. A(C   6,N   5,H  17)          111.5501         0.359394   
     35. A(C   6,N   5,H  16)          117.5889         0.360340   
     36. A(H  16,N   5,H  17)          112.1984         0.302453   
     37. A(O   7,C   6,N   8)          122.2919         0.468618   
     38. A(N   5,C   6,N   8)          117.4554         0.430222   
     39. A(N   5,C   6,O   7)          120.2520         0.471401   
     40. A(C   6,N   8,C   9)          130.3821         0.425869   
     41. A(C   9,N   8,H  18)          115.2765         0.354893   
     42. A(C   6,N   8,H  18)          114.3356         0.356369   
     43. A(O  10,C   9,H  19)          122.1156         0.379276   
     44. A(N   8,C   9,H  19)          114.6107         0.346786   
     45. A(N   8,C   9,O  10)          123.2708         0.466232   
     46. A(C   9,O  10,H  13)          124.6959         0.247639   
     47. L(N   1,H  13,O  10,C   0, 2) 180.8736         0.200288   
     48. L(N   1,H  13,O  10,C   0, 1) 176.4365         0.200288   
     49. L(N   2,H  18,N   8,C   9, 2) 174.8012         0.194790   
     50. L(N   2,H  18,N   8,C   9, 1) 176.3608         0.194790   
     51. D(H  13,N   1,C   0,H  11)    166.7574         0.031701   
     52. D(H  12,N   1,C   0,N   2)   -150.9190         0.031701   
     53. D(H  12,N   1,C   0,H  11)     29.5615         0.031701   
     54. D(H  13,N   1,C   0,N   2)    -13.7230         0.031701   
     55. D(C   3,N   2,C   0,N   1)   -179.8413         0.058178   
     56. D(H  18,N   2,C   0,H  11)   -176.8473         0.058178   
     57. D(C   3,N   2,C   0,H  11)     -0.3894         0.058178   
     58. D(H  18,N   2,C   0,N   1)      3.7008         0.058178   
     59. D(H  14,C   3,N   2,H  18)     -3.3639         0.029331   
     60. D(H  14,C   3,N   2,C   0)    179.9983         0.029331   
     61. D(N   4,C   3,N   2,H  18)    176.3970         0.029331   
     62. D(N   4,C   3,N   2,C   0)     -0.2407         0.029331   
     63. D(H  15,N   4,C   3,H  14)   -179.5720         0.051839   
     64. D(H  15,N   4,C   3,N   2)      0.6720         0.051839   
     65. D(O   7,C   6,N   5,H  16)   -135.4655         0.033061   
     66. D(N   8,C   6,N   5,H  17)    176.4870         0.033061   
     67. D(N   8,C   6,N   5,H  16)     44.8287         0.033061   
     68. D(O   7,C   6,N   5,H  17)     -3.8071         0.033061   
     69. D(H  18,N   8,C   6,O   7)     -0.6077         0.030835   
     70. D(H  18,N   8,C   6,N   5)    179.0917         0.030835   
     71. D(C   9,N   8,C   6,O   7)   -179.6806         0.030835   
     72. D(C   9,N   8,C   6,N   5)      0.0188         0.030835   
     73. D(C   9,N   8,N   2,C   3)   -166.8413         0.001500   
     74. D(C   9,N   8,N   2,C   0)      8.2565         0.001500   
     75. D(C   6,N   8,N   2,C   3)     11.9070         0.001500   
     76. D(C   6,N   8,N   2,C   0)   -172.9952         0.001500   
     77. D(H  19,C   9,N   8,H  18)   -178.2781         0.029255   
     78. D(H  19,C   9,N   8,C   6)      0.7877         0.029255   
     79. D(O  10,C   9,N   8,H  18)      1.1202         0.029255   
     80. D(O  10,C   9,N   8,C   6)   -179.8140         0.029255   
     81. D(C   9,O  10,N   1,C   0)     21.3861         0.001501   
     82. D(H  13,O  10,C   9,H  19)    169.7539         0.085310   
     83. D(H  13,O  10,C   9,N   8)     -9.6003         0.085310   
     84. D(C   9,O  10,N   1,H  12)    160.1296         0.001501   
    -----------------------------------------------------------------

Number of atoms                         .... 20
Number of degrees of freedom            .... 84

         *************************************************************
         *                GEOMETRY OPTIMIZATION CYCLE   1            *
         *************************************************************
---------------------------------
CARTESIAN COORDINATES (ANGSTROEM)
---------------------------------
  C      1.636100   -0.693900   -0.080500
  N      1.053700   -1.909900   -0.257100
  N      0.970500    0.403700   -0.022600
  C      1.581600    1.616800    0.152900
  N      2.844400    1.826200    0.283400
  N     -3.873800    1.587500   -0.101700
  C     -2.519500    1.580600   -0.124300
  O     -1.897900    2.633000   -0.223200
  N     -1.895600    0.371400   -0.039800
  C     -2.417100   -0.890800    0.068100
  O     -1.724700   -1.901500    0.139200
  H      2.732100   -0.779200   -0.004700
  H      1.516500   -2.720400    0.136300
  H      0.037800   -1.945100   -0.126900
  H      0.907000    2.489800    0.186900
  H      3.392200    0.974400    0.233700
  H     -4.333200    1.006400    0.585100
  H     -4.241800    2.532700   -0.111800
  H     -0.878300    0.420300   -0.075800
  H     -3.516700   -0.933200    0.076100

----------------------------
CARTESIAN COORDINATES (A.U.)
----------------------------
  NO LB      ZA    FRAG     MASS         X           Y           Z
   0 C     6.0000    0    12.011    3.091781   -1.311281   -0.152123
   1 N     7.0000    0    14.007    1.991204   -3.609188   -0.485849
   2 N     7.0000    0    14.007    1.833979    0.762882   -0.042708
   3 C     6.0000    0    12.011    2.988791    3.055309    0.288939
   4 N     7.0000    0    14.007    5.375137    3.451018    0.535548
   5 N     7.0000    0    14.007   -7.320421    2.999940   -0.192185
   6 C     6.0000    0    12.011   -4.761165    2.986901   -0.234893
   7 O     8.0000    0    15.999   -3.586511    4.975649   -0.421787
   8 N     7.0000    0    14.007   -3.582165    0.701844   -0.075211
   9 C     6.0000    0    12.011   -4.567657   -1.683368    0.128690
  10 O     8.0000    0    15.999   -3.259211   -3.593314    0.263050
  11 H     1.0000    0     1.008    5.162921   -1.472475   -0.008882
  12 H     1.0000    0     1.008    2.865770   -5.140811    0.257570
  13 H     1.0000    0     1.008    0.071432   -3.675706   -0.239806
  14 H     1.0000    0     1.008    1.713982    4.705040    0.353190
  15 H     1.0000    0     1.008    6.410329    1.841349    0.441629
  16 H     1.0000    0     1.008   -8.188561    1.901820    1.105679
  17 H     1.0000    0     1.008   -8.015840    4.786109   -0.211271
  18 H     1.0000    0     1.008   -1.659746    0.794252   -0.143241
  19 H     1.0000    0     1.008   -6.645600   -1.763492    0.143808

--------------------------------
INTERNAL COORDINATES (ANGSTROEM)
--------------------------------
 C      0   0   0     0.000000000000     0.00000000     0.00000000
 N      1   0   0     1.359791645805     0.00000000     0.00000000
 N      1   2   0     1.284951956300   123.22046610     0.00000000
 C      3   1   2     1.369618585592   122.08872618   180.15867392
 N      4   3   1     1.286678844934   126.51581620   359.75925315
 N      3   1   2     4.987472480125   134.84237844     3.37462123
 C      6   3   1     1.354506131400    13.56846907   192.41586334
 O      7   6   3     1.226259976514   120.25198243   183.06185547
 N      7   6   8     1.363288707501   117.45538980   180.29416746
 C      9   7   6     1.369946531803   130.38211843     0.00000000
 O     10   9   7     1.227186807295   123.27082078   180.18602164
 H      1   2   3     1.101924557309   111.45113902   180.48047422
 H      2   1   3     1.012846311145   117.99879655   209.08098443
 H      2   1   3     1.024814075821   116.02676897   346.27696303
 H      4   3   1     1.103798061241   115.58048670   179.99830378
 H      5   4   3     1.013961621562   112.86383173     0.67197055
 H      6   3   1     1.010158309375   107.12170379    50.30812282
 H      6   3   1     1.014361400094   125.00897013   184.61024801
 H      9   7   6     1.019110641687   114.33563338   179.09169011
 H     10   9   7     1.100446236760   114.61073165     0.78768734

---------------------------
INTERNAL COORDINATES (A.U.)
---------------------------
 C      0   0   0     0.000000000000     0.00000000     0.00000000
 N      1   0   0     2.569633809765     0.00000000     0.00000000
 N      1   2   0     2.428207292654   123.22046610     0.00000000
 C      3   1   2     2.588204034698   122.08872618   180.15867392
 N      4   3   1     2.431470639235   126.51581620   359.75925315
 N      3   1   2     9.424957087904   134.84237844     3.37462123
 C      6   3   1     2.559645635063    13.56846907   192.41586334
 O      7   6   3     2.317295524600   120.25198243   183.06185547
 N      7   6   8     2.576242298645   117.45538980   180.29416746
 C      9   7   6     2.588823763224   130.38211843     0.00000000
 O     10   9   7     2.319046980950   123.27082078   180.18602164
 H      1   2   3     2.082335633556   111.45113902   180.48047422
 H      2   1   3     1.914002143816   117.99879655   209.08098443
 H      2   1   3     1.936617941489   116.02676897   346.27696303
 H      4   3   1     2.085876042899   115.58048670   179.99830378
 H      5   4   3     1.916109775058   112.86383173     0.67197055
 H      6   3   1     1.908922556624   107.12170379    50.30812282
 H      6   3   1     1.916865246998   125.00897013   184.61024801
 H      9   7   6     1.925840012953   114.33563338   179.09169011
 H     10   9   7     2.079542012581   114.61073165     0.78768734

---------------------
BASIS SET INFORMATION
---------------------
There are 4 groups of distinct atoms

 Group   1 Type C   : 17s4p1d contracted to 3s2p1d pattern {881/31/1}
 Group   2 Type N   : 17s4p1d contracted to 3s2p1d pattern {881/31/1}
 Group   3 Type O   : 17s4p1d contracted to 3s2p1d pattern {881/31/1}
 Group   4 Type H   : 4s1p contracted to 2s1p pattern {31/1}

Atom   0C    basis set group =>   1
Atom   1N    basis set group =>   2
Atom   2N    basis set group =>   2
Atom   3C    basis set group =>   1
Atom   4N    basis set group =>   2
Atom   5N    basis set group =>   2
Atom   6C    basis set group =>   1
Atom   7O    basis set group =>   3
Atom   8N    basis set group =>   2
Atom   9C    basis set group =>   1
Atom  10O    basis set group =>   3
Atom  11H    basis set group =>   4
Atom  12H    basis set group =>   4
Atom  13H    basis set group =>   4
Atom  14H    basis set group =>   4
Atom  15H    basis set group =>   4
Atom  16H    basis set group =>   4
Atom  17H    basis set group =>   4
Atom  18H    basis set group =>   4
Atom  19H    basis set group =>   4
-------------------------------
AUXILIARY BASIS SET INFORMATION
-------------------------------
There are 4 groups of distinct atoms

 Group   1 Type C   : 12s5p4d2f1g contracted to 6s4p3d1f1g pattern {711111/2111/211/2/1}
 Group   2 Type N   : 12s5p4d2f1g contracted to 6s4p3d1f1g pattern {711111/2111/211/2/1}
 Group   3 Type O   : 12s5p4d2f1g contracted to 6s4p3d1f1g pattern {711111/2111/211/2/1}
 Group   4 Type H   : 5s2p1d contracted to 3s1p1d pattern {311/2/1}

Atom   0C    basis set group =>   1
Atom   1N    basis set group =>   2
Atom   2N    basis set group =>   2
Atom   3C    basis set group =>   1
Atom   4N    basis set group =>   2
Atom   5N    basis set group =>   2
Atom   6C    basis set group =>   1
Atom   7O    basis set group =>   3
Atom   8N    basis set group =>   2
Atom   9C    basis set group =>   1
Atom  10O    basis set group =>   3
Atom  11H    basis set group =>   4
Atom  12H    basis set group =>   4
Atom  13H    basis set group =>   4
Atom  14H    basis set group =>   4
Atom  15H    basis set group =>   4
Atom  16H    basis set group =>   4
Atom  17H    basis set group =>   4
Atom  18H    basis set group =>   4
Atom  19H    basis set group =>   4


           ************************************************************
           *        Program running with 6 parallel MPI-processes     *
           *              working on a common directory               *
           ************************************************************
------------------------------------------------------------------------------
                           ORCA GTO INTEGRAL CALCULATION
                           -- RI-GTO INTEGRALS CHOSEN --
------------------------------------------------------------------------------

                         BASIS SET STATISTICS AND STARTUP INFO

Gaussian basis set:
 # of primitive gaussian shells          ...  287
 # of primitive gaussian functions       ...  437
 # of contracted shells                  ...   93
 # of contracted basis functions         ...  199
 Highest angular momentum                ...    2
 Maximum contraction depth               ...    8
Auxiliary gaussian basis set:
 # of primitive gaussian shells          ...  336
 # of primitive gaussian functions       ...  914
 # of contracted shells                  ...  210
 # of contracted aux-basis functions     ...  638
 Highest angular momentum                ...    4
 Maximum contraction depth               ...    7
Ratio of auxiliary to basis functions    ...  3.21
Integral package used                  ... LIBINT
 One Electron integrals                  ... done
 Ordering auxiliary basis shells         ... done
 Integral threshhold             Thresh  ...  2.500e-11
 Primitive cut-off               TCut    ...  2.500e-12
 Pre-screening matrix                    ... done
 Shell pair data                         ... 
 Ordering of the shell pairs             ... done (   0.001 sec) 3844 of 4371 pairs
 Determination of significant pairs      ... done (   0.000 sec)
 Creation of shell pair data             ... done (   0.002 sec)
 Storage of shell pair data              ... done (   0.004 sec)
 Shell pair data done in (   0.007 sec)
 Computing two index integrals           ... done
 Cholesky decomposition of the V-matrix  ... done


Timings:
 Total evaluation time                   ...   0.455 sec (  0.008 min)
 One electron matrix time                ...   0.053 sec (  0.001 min) = 11.7%
 Schwartz matrix evaluation time         ...   0.310 sec (  0.005 min) = 68.3%
 Two index repulsion integral time       ...   0.039 sec (  0.001 min) =  8.5%
 Cholesky decomposition of V             ...   0.026 sec (  0.000 min) =  5.7%
 Three index repulsion integral time     ...   0.000 sec (  0.000 min) =  0.0%



           ************************************************************
           *        Program running with 6 parallel MPI-processes     *
           *              working on a common directory               *
           ************************************************************
-------------------------------------------------------------------------------
                                 ORCA SCF
-------------------------------------------------------------------------------

------------
SCF SETTINGS
------------
Hamiltonian:
 Density Functional     Method          .... DFT(GTOs)
 Exchange Functional    Exchange        .... B88
   X-Alpha parameter    XAlpha          ....  0.666667
   Becke's b parameter  XBeta           ....  0.004200
 Correlation Functional Correlation     .... LYP
 LDA part of GGA corr.  LDAOpt          .... VWN-5
 Gradients option       PostSCFGGA      .... off
 Hybrid DFT is turned on
   Fraction HF Exchange ScalHFX         ....  0.200000
   Scaling of DF-GGA-X  ScalDFX         ....  0.720000
   Scaling of DF-GGA-C  ScalDFC         ....  0.810000
   Scaling of DF-LDA-C  ScalLDAC        ....  1.000000
   Perturbative correction              ....  0.000000
   NL short-range parameter             ....  4.800000
 RI-approximation to the Coulomb term is turned on
   Number of auxiliary basis functions  .... 638
   RIJ-COSX (HFX calculated with COS-X)).... on


General Settings:
 Integral files         IntName         .... AT-v/e/frag_26_c00001
 Hartree-Fock type      HFTyp           .... RHF
 Total Charge           Charge          ....    0
 Multiplicity           Mult            ....    1
 Number of Electrons    NEL             ....   84
 Basis Dimension        Dim             ....  199
 Nuclear Repulsion      ENuc            ....    603.3505587910 Eh

Convergence Acceleration:
 DIIS                   CNVDIIS         .... on
   Start iteration      DIISMaxIt       ....    12
   Startup error        DIISStart       ....  0.200000
   # of expansion vecs  DIISMaxEq       ....     5
   Bias factor          DIISBfac        ....   1.050
   Max. coefficient     DIISMaxC        ....  10.000
 Newton-Raphson         CNVNR           .... off
 SOSCF                  CNVSOSCF        .... on
   Start iteration      SOSCFMaxIt      ....   150
   Startup grad/error   SOSCFStart      ....  0.003300
 Level Shifting         CNVShift        .... on
   Level shift para.    LevelShift      ....    0.2500
   Turn off err/grad.   ShiftErr        ....    0.0010
 Zerner damping         CNVZerner       .... off
 Static damping         CNVDamp         .... on
   Fraction old density DampFac         ....    0.7000
   Max. Damping (<1)    DampMax         ....    0.9800
   Min. Damping (>=0)   DampMin         ....    0.0000
   Turn off err/grad.   DampErr         ....    0.1000
 Fernandez-Rico         CNVRico         .... off

SCF Procedure:
 Maximum # iterations   MaxIter         ....   125
 SCF integral mode      SCFMode         .... Direct
   Integral package                     .... LIBINT
 Reset frequeny         DirectResetFreq ....    20
 Integral Threshold     Thresh          ....  2.500e-11 Eh
 Primitive CutOff       TCut            ....  2.500e-12 Eh

Convergence Tolerance:
 Convergence Check Mode ConvCheckMode   .... Total+1el-Energy
 Convergence forced     ConvForced      .... 0
 Energy Change          TolE            ....  1.000e-08 Eh
 1-El. energy change                    ....  1.000e-05 Eh
 Orbital Gradient       TolG            ....  1.000e-05
 Orbital Rotation angle TolX            ....  1.000e-05
 DIIS Error             TolErr          ....  5.000e-07


Diagonalization of the overlap matrix:
Smallest eigenvalue                        ... 4.623e-03
Time for diagonalization                   ...    0.010 sec
Threshold for overlap eigenvalues          ... 1.000e-08
Number of eigenvalues below threshold      ... 0
Time for construction of square roots      ...    0.005 sec
Total time needed                          ...    0.015 sec

-------------------
DFT GRID GENERATION
-------------------

General Integration Accuracy     IntAcc      ...  4.340
Radial Grid Type                 RadialGrid  ... Gauss-Chebyshev
Angular Grid (max. acc.)         AngularGrid ... Lebedev-110
Angular grid pruning method      GridPruning ... 3 (G Style)
Weight generation scheme         WeightScheme... Becke
Basis function cutoff            BFCut       ...    1.0000e-11
Integration weight cutoff        WCut        ...    1.0000e-14
Grids for H and He will be reduced by one unit

# of grid points (after initial pruning)     ...  25712 (   0.0 sec)
# of grid points (after weights+screening)   ...  23853 (   0.0 sec)
nearest neighbour list constructed           ...    0.0 sec
Grid point re-assignment to atoms done       ...    0.0 sec
Grid point division into batches done        ...    0.0 sec
Reduced shell lists constructed in    0.1 sec

Total number of grid points                  ...    23853
Total number of batches                      ...      382
Average number of points per batch           ...       62
Average number of grid points per atom       ...     1193
Average number of shells per batch           ...    67.60 (72.69%)
Average number of basis functions per batch  ...   140.77 (70.74%)
Average number of large shells per batch     ...    48.91 (72.35%)
Average number of large basis fcns per batch ...   100.45 (71.36%)
Maximum spatial batch extension              ...   9.87,  8.58, 21.84 au
Average spatial batch extension              ...   0.32,  0.34,  0.53 au

Time for grid setup =    0.144 sec

------------------------------
INITIAL GUESS: MODEL POTENTIAL
------------------------------
Loading Hartree-Fock densities                     ... done
Calculating cut-offs                               ... done
Setting up the integral package                    ... done
Initializing the effective Hamiltonian             ... done
Starting the Coulomb interaction                   ... done (   0.1 sec)
Reading the grid                                   ... done
Mapping shells                                     ... done
Starting the XC term evaluation                    ... done (   0.1 sec)
  promolecular density results
     # of electrons  =     84.003432318
     EX              =    -72.517068718
     EC              =     -2.902313855
     EX+EC           =    -75.419382573
Transforming the Hamiltonian                       ... done (   0.0 sec)
Diagonalizing the Hamiltonian                      ... done (   0.0 sec)
Back transforming the eigenvectors                 ... done (   0.0 sec)
Now organizing SCF variables                       ... done
                      ------------------
                      INITIAL GUESS DONE (   0.5 sec)
                      ------------------
--------------------
COSX GRID GENERATION
--------------------

General Integration Accuracy     IntAcc      ...  3.340
Radial Grid Type                 RadialGrid  ... Gauss-Chebyshev
Angular Grid (max. acc.)         AngularGrid ... Lebedev-50
Angular grid pruning method      GridPruning ... 3 (G Style)
Weight generation scheme         WeightScheme... Becke
Basis function cutoff            BFCut       ...    1.0000e-11
Integration weight cutoff        WCut        ...    1.0000e-14
Grids for H and He will be reduced by one unit

# of grid points (after initial pruning)     ...   9190 (   0.0 sec)
# of grid points (after weights+screening)   ...   8590 (   0.0 sec)
nearest neighbour list constructed           ...    0.0 sec
Grid point re-assignment to atoms done       ...    0.0 sec
Grid point division into batches done        ...    0.0 sec
Reduced shell lists constructed in    0.0 sec

Total number of grid points                  ...     8590
Total number of batches                      ...      144
Average number of points per batch           ...       59
Average number of grid points per atom       ...      430
Average number of shells per batch           ...    69.04 (74.24%)
Average number of basis functions per batch  ...   144.48 (72.60%)
Average number of large shells per batch     ...    50.36 (72.94%)
Average number of large basis fcns per batch ...   104.20 (72.12%)
Maximum spatial batch extension              ...   4.40,  8.29, 18.10 au
Average spatial batch extension              ...   0.38,  0.40,  0.85 au

Overlap Fitting                  UseSFitting ... on
Constructing numerical overlap ... done (      0.0 sec)
Inverting numerical overlap    ... done (      0.0 sec)
Obtaining analytic overlap     ... done (      0.0 sec)
Final contraction and storage  ... done (      0.0 sec)


General Integration Accuracy     IntAcc      ...  3.670
Radial Grid Type                 RadialGrid  ... Gauss-Chebyshev
Angular Grid (max. acc.)         AngularGrid ... Lebedev-50
Angular grid pruning method      GridPruning ... 3 (G Style)
Weight generation scheme         WeightScheme... Becke
Basis function cutoff            BFCut       ...    1.0000e-11
Integration weight cutoff        WCut        ...    1.0000e-14
Grids for H and He will be reduced by one unit

# of grid points (after initial pruning)     ...  11738 (   0.0 sec)
# of grid points (after weights+screening)   ...  10946 (   0.0 sec)
nearest neighbour list constructed           ...    0.0 sec
Grid point re-assignment to atoms done       ...    0.0 sec
Grid point division into batches done        ...    0.0 sec
Reduced shell lists constructed in    0.0 sec

Total number of grid points                  ...    10946
Total number of batches                      ...      180
Average number of points per batch           ...       60
Average number of grid points per atom       ...      547
Average number of shells per batch           ...    69.03 (74.23%)
Average number of basis functions per batch  ...   144.00 (72.36%)
Average number of large shells per batch     ...    50.06 (72.52%)
Average number of large basis fcns per batch ...   103.68 (72.00%)
Maximum spatial batch extension              ...   5.30,  6.10, 28.23 au
Average spatial batch extension              ...   0.35,  0.38,  0.76 au

Overlap Fitting                  UseSFitting ... on
Constructing numerical overlap ... done (      0.0 sec)
Inverting numerical overlap    ... done (      0.0 sec)
Obtaining analytic overlap     ... done (      0.0 sec)
Final contraction and storage  ... done (      0.0 sec)


General Integration Accuracy     IntAcc      ...  4.010
Radial Grid Type                 RadialGrid  ... Gauss-Chebyshev
Angular Grid (max. acc.)         AngularGrid ... Lebedev-110
Angular grid pruning method      GridPruning ... 3 (G Style)
Weight generation scheme         WeightScheme... Becke
Basis function cutoff            BFCut       ...    1.0000e-11
Integration weight cutoff        WCut        ...    1.0000e-14
Grids for H and He will be reduced by one unit

# of grid points (after initial pruning)     ...  22068 (   0.0 sec)
# of grid points (after weights+screening)   ...  20494 (   0.0 sec)
nearest neighbour list constructed           ...    0.0 sec
Grid point re-assignment to atoms done       ...    0.0 sec
Grid point division into batches done        ...    0.0 sec
Reduced shell lists constructed in    0.1 sec

Total number of grid points                  ...    20494
Total number of batches                      ...      332
Average number of points per batch           ...       61
Average number of grid points per atom       ...     1025
Average number of shells per batch           ...    67.91 (73.02%)
Average number of basis functions per batch  ...   141.46 (71.08%)
Average number of large shells per batch     ...    49.40 (72.75%)
Average number of large basis fcns per batch ...   101.65 (71.86%)
Maximum spatial batch extension              ...   9.50,  8.58, 20.66 au
Average spatial batch extension              ...   0.34,  0.35,  0.53 au

Overlap Fitting                  UseSFitting ... on
Constructing numerical overlap ... done (      0.0 sec)
Inverting numerical overlap    ... done (      0.0 sec)
Obtaining analytic overlap     ... done (      0.0 sec)
Final contraction and storage  ... done (      0.0 sec)

Time for X-Grid setup             =    0.385 sec
--------------
SCF ITERATIONS
--------------
ITER       Energy         Delta-E        Max-DP      RMS-DP      [F,P]     Damp
               ***  Starting incremental Fock matrix formation  ***
  0   -581.2929841058   0.000000000000 0.10745105  0.00273588  0.2877158 0.7000
  1   -581.5367643415  -0.243780235741 0.06790647  0.00174660  0.1183579 0.7000
                               ***Turning on DIIS***
  2   -581.6185845476  -0.081820206089 0.09383024  0.00238272  0.0474726 0.0000
  3   -581.7562741442  -0.137689596647 0.04555727  0.00122765  0.0780662 0.0000
  4   -581.7859041071  -0.029629962891 0.01451038  0.00038895  0.0201934 0.0000
  5   -581.7883499619  -0.002445854755 0.00488929  0.00012838  0.0059556 0.0000
                      *** Initiating the SOSCF procedure ***
                           *** Shutting down DIIS ***
                      *** Re-Reading the Fockian *** 
                      *** Removing any level shift *** 
ITER      Energy       Delta-E        Grad      Rot      Max-DP    RMS-DP
  6   -581.78849959  -0.0001496302  0.000615  0.000615  0.001810  0.000047
               *** Restarting incremental Fock matrix formation ***
  7   -581.78852725  -0.0000276622  0.000269  0.000927  0.001439  0.000035
  8   -581.78852833  -0.0000010707  0.000375  0.000706  0.000942  0.000017
  9   -581.78853019  -0.0000018666  0.000154  0.000362  0.000492  0.000013
 10   -581.78853051  -0.0000003187  0.000063  0.000066  0.000177  0.000003
 11   -581.78853064  -0.0000001273  0.000036  0.000138  0.000135  0.000003
 12   -581.78853068  -0.0000000377  0.000026  0.000058  0.000050  0.000001
 13   -581.78853068  -0.0000000077  0.000012  0.000025  0.000035  0.000001
 14   -581.78853069  -0.0000000035  0.000003  0.000009  0.000015  0.000000
 15   -581.78853069  -0.0000000020  0.000003  0.000007  0.000009  0.000000
                  ***Gradient check signals convergence***
              ***Rediagonalizing the Fockian in SOSCF/NRSCF***

               *****************************************************
               *                     SUCCESS                       *
               *           SCF CONVERGED AFTER  16 CYCLES          *
               *****************************************************

Setting up the final grid:

General Integration Accuracy     IntAcc      ...  4.670
Radial Grid Type                 RadialGrid  ... Gauss-Chebyshev
Angular Grid (max. acc.)         AngularGrid ... Lebedev-302
Angular grid pruning method      GridPruning ... 3 (G Style)
Weight generation scheme         WeightScheme... Becke
Basis function cutoff            BFCut       ...    1.0000e-11
Integration weight cutoff        WCut        ...    1.0000e-14
Grids for H and He will be reduced by one unit

# of grid points (after initial pruning)     ...  98878 (   0.0 sec)
# of grid points (after weights+screening)   ...  90285 (   0.1 sec)
nearest neighbour list constructed           ...    0.0 sec
Grid point re-assignment to atoms done       ...    0.0 sec
Grid point division into batches done        ...    0.4 sec
Reduced shell lists constructed in    0.6 sec

Total number of grid points                  ...    90285
Total number of batches                      ...     1420
Average number of points per batch           ...       63
Average number of grid points per atom       ...     4514
Average number of shells per batch           ...    62.84 (67.57%)
Average number of basis functions per batch  ...   129.61 (65.13%)
Average number of large shells per batch     ...    45.41 (72.26%)
Average number of large basis fcns per batch ...    92.99 (71.75%)
Maximum spatial batch extension              ...  11.36, 10.38, 16.79 au
Average spatial batch extension              ...   0.23,  0.24,  0.29 au

Final grid set up in    0.9 sec
Final integration                            ... done (   0.4 sec)
Change in XC energy                          ...    -0.000056253
Integrated number of electrons               ...    84.000014995
Previous integrated no of electrons          ...    84.003919589
Old exchange energy                            =    -14.700215390 Eh
New exchange energy                            =    -14.699646473 Eh
Exchange energy change after final integration =      0.000568917 Eh
Total energy after final integration           =   -581.788018024 Eh
Final COS-X integration done in                =     3.071 sec

----------------
TOTAL SCF ENERGY
----------------

Total Energy       :         -581.78801802 Eh          -15831.25682 eV

Components:
Nuclear Repulsion  :          603.35055879 Eh           16418.00338 eV
Electronic Energy  :        -1185.13857682 Eh          -32249.26020 eV
One Electron Energy:        -1989.37824445 Eh          -54133.73414 eV
Two Electron Energy:          804.23966764 Eh           21884.47394 eV

Virial components:
Potential Energy   :        -1160.46034823 Eh          -31577.73146 eV
Kinetic Energy     :          578.67233021 Eh           15746.47464 eV
Virial Ratio       :            2.00538420


DFT components:
N(Alpha)           :       42.000007497467 electrons
N(Beta)            :       42.000007497467 electrons
N(Total)           :       84.000014994935 electrons
E(X)               :      -58.494906697026 Eh       
E(C)               :       -3.422776184457 Eh       
E(XC)              :      -61.917682881482 Eh       

---------------
SCF CONVERGENCE
---------------

  Last Energy change         ...   -4.4008e-10  Tolerance :   1.0000e-08
  Last MAX-Density change    ...    7.6774e-14  Tolerance :   1.0000e-07
  Last RMS-Density change    ...    5.6449e-16  Tolerance :   5.0000e-09
  Last Orbital Gradient      ...    1.2756e-06  Tolerance :   1.0000e-05
  Last Orbital Rotation      ...    2.4548e-06  Tolerance :   1.0000e-05

             **** THE GBW FILE WAS UPDATED (AT-v/e/frag_26_c00001.gbw) ****
             **** DENSITY FILE WAS UPDATED (AT-v/e/frag_26_c00001.scfp.tmp) ****
             **** ENERGY FILE WAS UPDATED (AT-v/e/frag_26_c00001.en.tmp) ****
----------------
ORBITAL ENERGIES
----------------

  NO   OCC          E(Eh)            E(eV) 
   0   2.0000     -19.149638      -521.0881 
   1   2.0000     -19.111904      -520.0614 
   2   2.0000     -14.370784      -391.0489 
   3   2.0000     -14.358316      -390.7096 
   4   2.0000     -14.353161      -390.5694 
   5   2.0000     -14.314814      -389.5259 
   6   2.0000     -14.285835      -388.7373 
   7   2.0000     -10.323653      -280.9209 
   8   2.0000     -10.320913      -280.8463 
   9   2.0000     -10.278588      -279.6946 
  10   2.0000     -10.233630      -278.4712 
  11   2.0000      -1.075228       -29.2584 
  12   2.0000      -1.055075       -28.7100 
  13   2.0000      -0.971818       -26.4445 
  14   2.0000      -0.947423       -25.7807 
  15   2.0000      -0.911678       -24.8080 
  16   2.0000      -0.908724       -24.7276 
  17   2.0000      -0.833162       -22.6715 
  18   2.0000      -0.681046       -18.5322 
  19   2.0000      -0.666838       -18.1456 
  20   2.0000      -0.631848       -17.1935 
  21   2.0000      -0.586656       -15.9637 
  22   2.0000      -0.571463       -15.5503 
  23   2.0000      -0.549921       -14.9641 
  24   2.0000      -0.524898       -14.2832 
  25   2.0000      -0.497324       -13.5329 
  26   2.0000      -0.490298       -13.3417 
  27   2.0000      -0.462396       -12.5824 
  28   2.0000      -0.456741       -12.4285 
  29   2.0000      -0.444186       -12.0869 
  30   2.0000      -0.424772       -11.5586 
  31   2.0000      -0.412127       -11.2146 
  32   2.0000      -0.405785       -11.0420 
  33   2.0000      -0.402396       -10.9498 
  34   2.0000      -0.325070        -8.8456 
  35   2.0000      -0.309823        -8.4307 
  36   2.0000      -0.295744        -8.0476 
  37   2.0000      -0.286465        -7.7951 
  38   2.0000      -0.279325        -7.6008 
  39   2.0000      -0.264674        -7.2021 
  40   2.0000      -0.238734        -6.4963 
  41   2.0000      -0.234328        -6.3764 
  42   0.0000      -0.036201        -0.9851 
  43   0.0000      -0.032530        -0.8852 
  44   0.0000       0.037451         1.0191 
  45   0.0000       0.050905         1.3852 
  46   0.0000       0.067570         1.8387 
  47   0.0000       0.078526         2.1368 
  48   0.0000       0.087920         2.3924 
  49   0.0000       0.091324         2.4851 
  50   0.0000       0.124521         3.3884 
  51   0.0000       0.143688         3.9100 
  52   0.0000       0.172349         4.6899 
  53   0.0000       0.181294         4.9333 
  54   0.0000       0.207107         5.6357 
  55   0.0000       0.225575         6.1382 
  56   0.0000       0.271434         7.3861 
  57   0.0000       0.280118         7.6224 
  58   0.0000       0.290410         7.9025 
  59   0.0000       0.300280         8.1710 
  60   0.0000       0.347792         9.4639 
  61   0.0000       0.354950         9.6587 
  62   0.0000       0.380048        10.3416 
  63   0.0000       0.398512        10.8441 
  64   0.0000       0.426421        11.6035 
  65   0.0000       0.445647        12.1267 
  66   0.0000       0.447317        12.1721 
  67   0.0000       0.458934        12.4882 
  68   0.0000       0.469301        12.7703 
  69   0.0000       0.493375        13.4254 
  70   0.0000       0.511300        13.9132 
  71   0.0000       0.520513        14.1639 
  72   0.0000       0.535117        14.5613 
  73   0.0000       0.540954        14.7201 
  74   0.0000       0.552030        15.0215 
  75   0.0000       0.560928        15.2636 
  76   0.0000       0.581559        15.8250 
  77   0.0000       0.592300        16.1173 
  78   0.0000       0.607796        16.5390 
  79   0.0000       0.636747        17.3268 
  80   0.0000       0.647795        17.6274 
  81   0.0000       0.660251        17.9663 
  82   0.0000       0.670878        18.2555 
  83   0.0000       0.686329        18.6760 
  84   0.0000       0.697978        18.9929 
  85   0.0000       0.728362        19.8197 
  86   0.0000       0.738942        20.1076 
  87   0.0000       0.756601        20.5882 
  88   0.0000       0.769710        20.9449 
  89   0.0000       0.794106        21.6087 
  90   0.0000       0.813935        22.1483 
  91   0.0000       0.824902        22.4467 
  92   0.0000       0.842225        22.9181 
  93   0.0000       0.862263        23.4634 
  94   0.0000       0.864705        23.5298 
  95   0.0000       0.886581        24.1251 
  96   0.0000       0.897652        24.4264 
  97   0.0000       0.910555        24.7775 
  98   0.0000       0.916584        24.9415 
  99   0.0000       0.944884        25.7116 
 100   0.0000       0.970489        26.4084 
 101   0.0000       0.988072        26.8868 
 102   0.0000       1.004190        27.3254 
 103   0.0000       1.021579        27.7986 
 104   0.0000       1.049838        28.5675 
 105   0.0000       1.057941        28.7880 
 106   0.0000       1.070531        29.1306 
 107   0.0000       1.081181        29.4204 
 108   0.0000       1.094575        29.7849 
 109   0.0000       1.116490        30.3812 
 110   0.0000       1.123004        30.5585 
 111   0.0000       1.141248        31.0549 
 112   0.0000       1.158602        31.5272 
 113   0.0000       1.192437        32.4479 
 114   0.0000       1.197007        32.5722 
 115   0.0000       1.226353        33.3708 
 116   0.0000       1.254210        34.1288 
 117   0.0000       1.261478        34.3266 
 118   0.0000       1.286730        35.0137 
 119   0.0000       1.316485        35.8234 
 120   0.0000       1.326219        36.0883 
 121   0.0000       1.370940        37.3052 
 122   0.0000       1.394334        37.9418 
 123   0.0000       1.420417        38.6515 
 124   0.0000       1.443252        39.2729 
 125   0.0000       1.459622        39.7183 
 126   0.0000       1.476443        40.1761 
 127   0.0000       1.497406        40.7465 
 128   0.0000       1.506960        41.0065 
 129   0.0000       1.529597        41.6224 
 130   0.0000       1.530450        41.6457 
 131   0.0000       1.568367        42.6774 
 132   0.0000       1.583673        43.0939 
 133   0.0000       1.616949        43.9994 
 134   0.0000       1.626364        44.2556 
 135   0.0000       1.628406        44.3112 
 136   0.0000       1.652347        44.9627 
 137   0.0000       1.680717        45.7346 
 138   0.0000       1.684185        45.8290 
 139   0.0000       1.688829        45.9554 
 140   0.0000       1.714776        46.6614 
 141   0.0000       1.722874        46.8818 
 142   0.0000       1.727257        47.0010 
 143   0.0000       1.755725        47.7757 
 144   0.0000       1.791719        48.7552 
 145   0.0000       1.806230        49.1500 
 146   0.0000       1.840181        50.0739 
 147   0.0000       1.861017        50.6409 
 148   0.0000       1.870882        50.9093 
 149   0.0000       1.895689        51.5843 
 150   0.0000       1.913847        52.0784 
 151   0.0000       1.967499        53.5384 
 152   0.0000       2.007192        54.6185 
 153   0.0000       2.021558        55.0094 
 154   0.0000       2.051077        55.8126 
 155   0.0000       2.078245        56.5519 
 156   0.0000       2.099547        57.1316 
 157   0.0000       2.159575        58.7650 
 158   0.0000       2.187790        59.5328 
 159   0.0000       2.193647        59.6922 
 160   0.0000       2.218572        60.3704 
 161   0.0000       2.234631        60.8074 
 162   0.0000       2.254734        61.3544 
 163   0.0000       2.255231        61.3680 
 164   0.0000       2.294179        62.4278 
 165   0.0000       2.310314        62.8668 
 166   0.0000       2.360992        64.2459 
 167   0.0000       2.375463        64.6396 
 168   0.0000       2.404277        65.4237 
 169   0.0000       2.424309        65.9688 
 170   0.0000       2.434346        66.2419 
 171   0.0000       2.469425        67.1965 
 172   0.0000       2.493027        67.8387 
 173   0.0000       2.505126        68.1679 
 174   0.0000       2.542840        69.1942 
 175   0.0000       2.579730        70.1980 
 176   0.0000       2.611151        71.0530 
 177   0.0000       2.629006        71.5389 
 178   0.0000       2.662991        72.4637 
 179   0.0000       2.696051        73.3633 
 180   0.0000       2.711368        73.7801 
 181   0.0000       2.728688        74.2514 
 182   0.0000       2.760528        75.1178 
 183   0.0000       2.776465        75.5515 
 184   0.0000       2.787800        75.8599 
 185   0.0000       2.824779        76.8662 
 186   0.0000       2.844565        77.4045 
 187   0.0000       2.960067        80.5475 
 188   0.0000       2.986156        81.2574 
 189   0.0000       3.031599        82.4940 
 190   0.0000       3.075982        83.7017 
 191   0.0000       3.114366        84.7462 
 192   0.0000       3.171292        86.2952 
 193   0.0000       3.311015        90.0973 
 194   0.0000       3.348599        91.1200 
 195   0.0000       3.396539        92.4245 
 196   0.0000       3.459670        94.1424 
 197   0.0000       3.501612        95.2837 
 198   0.0000       3.517731        95.7223 
-------
TIMINGS
-------

Total SCF time: 0 days 0 hours 0 min 34 sec 

Total time                  ....      34.098 sec
Sum of individual times     ....      33.952 sec  ( 99.6%)

Fock matrix formation       ....      31.909 sec  ( 93.6%)
  Split-RI-J                ....       5.129 sec  ( 16.1% of F)
  Chain of spheres X        ....      24.575 sec  ( 77.0% of F)
  COS-X 1 center corr.      ....       0.000 sec  (  0.0% of F)
  XC integration            ....       2.124 sec  (  6.7% of F)
    Basis function eval.    ....       0.789 sec  ( 37.1% of XC)
    Density eval.           ....       0.373 sec  ( 17.6% of XC)
    XC-Functional eval.     ....       0.088 sec  (  4.1% of XC)
    XC-Potential eval.      ....       0.690 sec  ( 32.5% of XC)
Diagonalization             ....       0.089 sec  (  0.3%)
Density matrix formation    ....       0.025 sec  (  0.1%)
Population analysis         ....       0.000 sec  (  0.0%)
Initial guess               ....       0.323 sec  (  0.9%)
Orbital Transformation      ....       0.000 sec  (  0.0%)
Orbital Orthonormalization  ....       0.000 sec  (  0.0%)
DIIS solution               ....       0.028 sec  (  0.1%)
SOSCF solution              ....       0.184 sec  (  0.5%)
Grid generation             ....       1.394 sec  (  4.1%)


-------------------------------------------------------------------------------
                          DFT DISPERSION CORRECTION                            
                                                                               
                              DFTD3 V3.1  Rev 1                                
                          USING Becke-Johnson damping                          
-------------------------------------------------------------------------------
The B3LYP functional is recognized
Active option DFTDOPT                   ...         4   

molecular C6(AA) [au] = 4047.910247 


            DFT-D V3
 parameters
 s6 scaling factor         :     1.0000 
 a1 scaling factor         :     0.3981 
 s8 scaling factor         :     1.9889 
 a2 scaling factor         :     4.4211 
 ad hoc parameters k1-k3   :    16.0000     1.3333    -4.0000 

 Edisp/kcal,au: -19.031938889945  -0.030329321941 
 E6   /kcal   :  -9.390316063 
 E8   /kcal   :  -9.641622827 
 % E8         :  50.660223759 

-------------------------   ----------------
Dispersion correction           -0.030329322
-------------------------   ----------------


-------------------------   --------------------
FINAL SINGLE POINT ENERGY      -581.818347346407
-------------------------   --------------------



           ************************************************************
           *        Program running with 6 parallel MPI-processes     *
           *              working on a common directory               *
           ************************************************************
------------------------------------------------------------------------------
                         ORCA SCF GRADIENT CALCULATION
------------------------------------------------------------------------------

Gradient of the Kohn-Sham DFT energy:
Kohn-Sham wavefunction type      ... RKS
Hartree-Fock exchange scaling    ...    0.200
Number of operators              ...    1
Number of atoms                  ...   20
Basis set dimensions             ...  199
Integral neglect threshold       ... 2.5e-11
Integral primitive cutoff        ... 2.5e-12

Nuclear repulsion gradient       ... done
One Electron Gradient            ... done
Pre-screening matrix             ... done
RI-J gradient                    ... done
COSX-gradient                    ... done
Exchange-correlation gradient    ... done
Dispersion correction            ... done

------------------
CARTESIAN GRADIENT
------------------

   1   C   :   -0.002447970    0.023246192   -0.002470510
   2   N   :    0.001784285   -0.007532593   -0.003421016
   3   N   :    0.031910495    0.018498210    0.006353797
   4   C   :   -0.038259630   -0.016611948   -0.002465780
   5   N   :    0.011226894   -0.025871129   -0.002237289
   6   N   :    0.028684622    0.003869701    0.001184585
   7   C   :   -0.004764568   -0.036910499   -0.004178320
   8   O   :   -0.008244247    0.008381639    0.006402915
   9   N   :    0.000070426    0.028472230   -0.002690589
  10   C   :   -0.008239853   -0.005752150    0.002474893
  11   O   :    0.009952268   -0.002761133   -0.000153337
  12   H   :   -0.002867182   -0.005655337   -0.000717357
  13   H   :   -0.007672408   -0.000274304    0.003519783
  14   H   :    0.004858383   -0.001192970    0.002087981
  15   H   :    0.000836025    0.005738521    0.000776075
  16   H   :   -0.004233308    0.010094312    0.000703621
  17   H   :    0.003858203    0.005810950   -0.001421422
  18   H   :   -0.000624393   -0.001616340   -0.001267827
  19   H   :   -0.024109746   -0.000889742   -0.000988526
  20   H   :    0.006750533    0.002256437    0.000022708

Difference to translation invariance:
           :   -0.0015311729    0.0013000481    0.0015143828

Norm of the cartesian gradient     ...    0.0949145680
RMS gradient                       ...    0.0122534180
MAX gradient                       ...    0.0382596303

-------
TIMINGS
-------

Total SCF gradient time            ...        6.591 sec

One electron gradient       ....       0.109 sec  (  1.7%)
Prescreening matrices       ....       0.146 sec  (  2.2%)
RI-J Coulomb gradient       ....       1.090 sec  ( 16.5%)
COSX gradient               ....       3.123 sec  ( 47.4%)
XC gradient                 ....       1.645 sec  ( 25.0%)
------------------------------------------------------------------------------
                         ORCA GEOMETRY RELAXATION STEP
------------------------------------------------------------------------------

Reading the OPT-File                    .... done
Getting information on internals        .... done
Copying old internal coords+grads       .... done
Making the new internal coordinates     .... (new redundants).... done
Validating the new internal coordinates .... (new redundants).... done
Calculating the B-matrix                .... done
Calculating the G,G- and P matrices     .... done
Transforming gradient to internals      .... done
Projecting the internal gradient        .... done
Number of atoms                         ....  20
Number of internal coordinates          ....  84
Current Energy                          ....  -581.818347346 Eh
Current gradient norm                   ....     0.094914568 Eh/bohr
Maximum allowed component of the step   ....  0.300
Current trust radius                    ....  0.300
Evaluating the initial hessian          ....  (Almloef) done
Projecting the Hessian                  .... done
Forming the augmented Hessian           .... done
Diagonalizing the augmented Hessian     .... done
Last element of RFO vector              ....  0.964706439
Lowest eigenvalues of augmented Hessian:
 -0.014358359  0.009446039  0.021304761  0.022230291  0.029342620
Length of the computed step             ....  0.272961500
The final length of the internal step   ....  0.272961500
Converting the step to cartesian space:
 Initial RMS(Int)=    0.0297825413
Transforming coordinates:
 Iter   0:  RMS(Cart)=    0.0619764083 RMS(Int)=    0.0298367469
 Iter   1:  RMS(Cart)=    0.0018573657 RMS(Int)=    0.0012241094
 Iter   2:  RMS(Cart)=    0.0001187242 RMS(Int)=    0.0000676087
 Iter   3:  RMS(Cart)=    0.0000223414 RMS(Int)=    0.0000163399
 Iter   4:  RMS(Cart)=    0.0000098058 RMS(Int)=    0.0000066982
 Iter   5:  RMS(Cart)=    0.0000041326 RMS(Int)=    0.0000028994
 Iter   6:  RMS(Cart)=    0.0000017549 RMS(Int)=    0.0000012563
 Iter   7:  RMS(Cart)=    0.0000007456 RMS(Int)=    0.0000005451
 Iter   8:  RMS(Cart)=    0.0000003164 RMS(Int)=    0.0000002368
 Iter   9:  RMS(Cart)=    0.0000001341 RMS(Int)=    0.0000001031
 Iter  10:  RMS(Cart)=    0.0000000568 RMS(Int)=    0.0000000450
done
Storing new coordinates                 .... done

                                .--------------------.
          ----------------------|Geometry convergence|-------------------------
          Item                value                   Tolerance       Converged
          ---------------------------------------------------------------------
          RMS gradient        0.0086435589            0.0020000000      NO
          MAX gradient        0.0377913758            0.0030000000      NO
          RMS step            0.0297825413            0.0200000000      NO
          MAX step            0.1132904089            0.0300000000      NO
          ........................................................
          Max(Bonds)      0.0600      Max(Angles)    3.75
          Max(Dihed)        4.65      Max(Improp)    0.00
          ---------------------------------------------------------------------

The optimization has not yet converged - more geometry cycles are needed


    ---------------------------------------------------------------------------
                         Redundant Internal Coordinates
                            (Angstroem and degrees)

        Definition                    Value    dE/dq     Step     New-Value
    ----------------------------------------------------------------------------
     1. B(N   1,C   0)                1.3598  0.005303 -0.0050    1.3548   
     2. B(N   2,C   0)                1.2850 -0.007530  0.0051    1.2901   
     3. B(C   3,N   2)                1.3696 -0.037791  0.0324    1.4020   
     4. B(N   4,C   3)                1.2867  0.004261 -0.0027    1.2840   
     5. B(C   6,N   5)                1.3545 -0.032162  0.0261    1.3806   
     6. B(O   7,C   6)                1.2263  0.002501 -0.0013    1.2250   
     7. B(N   8,C   6)                1.3633 -0.027247  0.0228    1.3861   
     8. B(C   9,N   8)                1.3699  0.005788 -0.0043    1.3657   
     9. B(O  10,C   9)                1.2272  0.005226 -0.0030    1.2242   
    10. B(H  11,C   0)                1.1019 -0.002399  0.0035    1.1055   
    11. B(H  12,N   1)                1.0128 -0.001897  0.0023    1.0151   
    12. B(H  13,N   1)                1.0248 -0.010661  0.0114    1.0362   
    13. B(H  13,O  10)                1.7830 -0.006041  0.0600    1.8430   
    14. B(H  14,C   3)                1.1038  0.003930 -0.0058    1.0980   
    15. B(H  15,N   4)                1.0140 -0.010668  0.0128    1.0268   
    16. B(H  16,N   5)                1.0102 -0.006076  0.0072    1.0174   
    17. B(H  17,N   5)                1.0144 -0.001333  0.0016    1.0160   
    18. B(H  18,N   2)                1.8496  0.001863 -0.0059    1.8437   
    19. B(H  18,N   8)                1.0191 -0.022122  0.0289    1.0480   
    20. B(H  19,C   9)                1.1004 -0.006899  0.0101    1.1106   
    21. A(N   1,C   0,N   2)          123.22  0.002847   -0.45    122.77   
    22. A(N   2,C   0,H  11)          125.33  0.004823   -0.75    124.58   
    23. A(N   1,C   0,H  11)          111.45 -0.007656    1.18    112.63   
    24. A(H  12,N   1,H  13)          112.09 -0.004290    1.73    113.83   
    25. A(C   0,N   1,H  12)          118.00  0.005883   -0.30    117.69   
    26. A(C   0,N   1,H  13)          116.03 -0.003733    0.64    116.67   
    27. A(C   0,N   2,H  18)          121.61  0.002675    0.01    121.62   
    28. A(C   3,N   2,H  18)          116.21  0.002886   -0.70    115.51   
    29. A(C   0,N   2,C   3)          122.09 -0.005585    0.71    122.80   
    30. A(N   2,C   3,H  14)          115.58  0.018497   -2.61    112.97   
    31. A(N   2,C   3,N   4)          126.52 -0.028149    3.75    130.26   
    32. A(N   4,C   3,H  14)          117.90  0.009653   -1.14    116.76   
    33. A(C   3,N   4,H  15)          112.86  0.003659   -0.54    112.33   
    34. A(C   6,N   5,H  17)          111.55  0.001741   -0.13    111.42   
    35. A(C   6,N   5,H  16)          117.59 -0.002721    0.54    118.13   
    36. A(H  16,N   5,H  17)          112.20 -0.000441    0.30    112.50   
    37. A(O   7,C   6,N   8)          122.29  0.010698   -1.26    121.04   
    38. A(N   5,C   6,N   8)          117.46  0.004314   -0.54    116.91   
    39. A(N   5,C   6,O   7)          120.25 -0.014999    1.78    122.03   
    40. A(C   6,N   8,C   9)          130.38  0.008328   -1.31    129.07   
    41. A(C   9,N   8,H  18)          115.28 -0.003070    0.76    116.03   
    42. A(C   6,N   8,H  18)          114.34 -0.005254    0.55    114.88   
    43. A(O  10,C   9,H  19)          122.12  0.001961   -0.31    121.81   
    44. A(N   8,C   9,H  19)          114.61 -0.002070    0.30    114.92   
    45. A(N   8,C   9,O  10)          123.27  0.000115   -0.00    123.27   
    46. A(C   9,O  10,H  13)          124.70  0.001201   -0.90    123.79   
    47. L(N   1,H  13,O  10,C   0, 2) 180.87 -0.000420   -0.06    180.81   
    48. L(N   1,H  13,O  10,C   0, 1) 176.44 -0.001220   -0.57    175.86   
    49. L(N   2,H  18,N   8,C   9, 2) 174.80  0.000108   -0.10    174.70   
    50. L(N   2,H  18,N   8,C   9, 1) 176.36  0.001079    0.59    176.95   
    51. D(H  13,N   1,C   0,H  11)    166.76 -0.001285    0.99    167.74   
    52. D(H  12,N   1,C   0,N   2)   -150.92  0.005101   -4.28   -155.20   
    53. D(H  12,N   1,C   0,H  11)     29.56  0.003374   -2.44     27.12   
    54. D(H  13,N   1,C   0,N   2)    -13.72  0.000442   -0.85    -14.58   
    55. D(C   3,N   2,C   0,N   1)   -179.84 -0.001228    1.90   -177.94   
    56. D(H  18,N   2,C   0,H  11)   -176.85  0.001066   -0.55   -177.40   
    57. D(C   3,N   2,C   0,H  11)     -0.39  0.000681   -0.19     -0.58   
    58. D(H  18,N   2,C   0,N   1)      3.70 -0.000843    1.54      5.24   
    59. D(H  14,C   3,N   2,H  18)     -3.36  0.000097   -0.21     -3.57   
    60. D(H  14,C   3,N   2,C   0)    180.00  0.000449   -0.57    179.42   
    61. D(N   4,C   3,N   2,H  18)    176.40  0.000480   -0.64    175.75   
    62. D(N   4,C   3,N   2,C   0)     -0.24  0.000832   -1.01     -1.25   
    63. D(H  15,N   4,C   3,H  14)   -179.57  0.000370   -0.37   -179.94   
    64. D(H  15,N   4,C   3,N   2)      0.67 -0.000037    0.08      0.75   
    65. D(O   7,C   6,N   5,H  16)   -135.47  0.004245   -4.65   -140.11   
    66. D(N   8,C   6,N   5,H  17)    176.49 -0.000152   -0.30    176.19   
    67. D(N   8,C   6,N   5,H  16)     44.83  0.001383   -1.15     43.68   
    68. D(O   7,C   6,N   5,H  17)     -3.81  0.002709   -3.79     -7.60   
    69. D(H  18,N   8,C   6,O   7)     -0.61 -0.003189    4.12      3.51   
    70. D(H  18,N   8,C   6,N   5)    179.09 -0.000347    0.56    179.65   
    71. D(C   9,N   8,C   6,O   7)   -179.68 -0.003550    4.38   -175.30   
    72. D(C   9,N   8,C   6,N   5)      0.02 -0.000707    0.82      0.84   
    73. D(C   9,N   8,N   2,C   3)   -166.84  0.001431   -1.67   -168.51   
    74. D(C   9,N   8,N   2,C   0)      8.26  0.000744   -1.19      7.07   
    75. D(C   6,N   8,N   2,C   3)     11.91  0.001057   -1.41     10.50   
    76. D(C   6,N   8,N   2,C   0)   -173.00  0.000371   -0.93   -173.93   
    77. D(H  19,C   9,N   8,H  18)   -178.28 -0.000445    0.48   -177.80   
    78. D(H  19,C   9,N   8,C   6)      0.79 -0.000097    0.21      1.00   
    79. D(O  10,C   9,N   8,H  18)      1.12  0.000226    0.13      1.25   
    80. D(O  10,C   9,N   8,C   6)   -179.81  0.000574   -0.14   -179.95   
    81. D(C   9,O  10,N   1,C   0)     21.39 -0.000316   -0.38     21.00   
    82. D(H  13,O  10,C   9,H  19)    169.75 -0.000214    0.11    169.87   
    83. D(H  13,O  10,C   9,N   8)     -9.60 -0.000909    0.48     -9.12   
    84. D(C   9,O  10,N   1,H  12)    160.13 -0.000480    1.88    162.01   
    ----------------------------------------------------------------------------

         *************************************************************
         *                GEOMETRY OPTIMIZATION CYCLE   2            *
         *************************************************************
---------------------------------
CARTESIAN COORDINATES (ANGSTROEM)
---------------------------------
  C      1.655465   -0.736568   -0.058823
  N      1.061264   -1.938913   -0.250527
  N      0.993894    0.370075   -0.014251
  C      1.612053    1.618674    0.142283
  N      2.852199    1.918405    0.286426
  N     -3.902538    1.599625   -0.079076
  C     -2.522361    1.597115   -0.113681
  O     -1.875291    2.623875   -0.279950
  N     -1.895676    0.363368   -0.033368
  C     -2.452079   -0.880204    0.061368
  O     -1.791073   -1.908483    0.127501
  H      2.756085   -0.812534    0.011236
  H      1.542176   -2.762751    0.096567
  H      0.032602   -1.973398   -0.130571
  H      0.897896    2.452622    0.148817
  H      3.458297    1.089792    0.269156
  H     -4.366361    1.002001    0.601162
  H     -4.271925    2.546055   -0.080940
  H     -0.848824    0.397439   -0.067873
  H     -3.562503   -0.897394    0.057845

----------------------------
CARTESIAN COORDINATES (A.U.)
----------------------------
  NO LB      ZA    FRAG     MASS         X           Y           Z
   0 C     6.0000    0    12.011    3.128376   -1.391911   -0.111159
   1 N     7.0000    0    14.007    2.005499   -3.664015   -0.473428
   2 N     7.0000    0    14.007    1.878188    0.699341   -0.026931
   3 C     6.0000    0    12.011    3.046339    3.058850    0.268877
   4 N     7.0000    0    14.007    5.389876    3.625260    0.541266
   5 N     7.0000    0    14.007   -7.374728    3.022852   -0.149432
   6 C     6.0000    0    12.011   -4.766571    3.018109   -0.214827
   7 O     8.0000    0    15.999   -3.543786    4.958405   -0.529029
   8 N     7.0000    0    14.007   -3.582309    0.686665   -0.063056
   9 C     6.0000    0    12.011   -4.633758   -1.663344    0.115968
  10 O     8.0000    0    15.999   -3.384638   -3.606510    0.240943
  11 H     1.0000    0     1.008    5.208246   -1.535466    0.021232
  12 H     1.0000    0     1.008    2.914291   -5.220842    0.182484
  13 H     1.0000    0     1.008    0.061608   -3.729183   -0.246742
  14 H     1.0000    0     1.008    1.696778    4.634784    0.281223
  15 H     1.0000    0     1.008    6.535233    2.059408    0.508631
  16 H     1.0000    0     1.008   -8.251226    1.893507    1.136032
  17 H     1.0000    0     1.008   -8.072769    4.811347   -0.152955
  18 H     1.0000    0     1.008   -1.604045    0.751051   -0.128262
  19 H     1.0000    0     1.008   -6.732155   -1.695829    0.109311

--------------------------------
INTERNAL COORDINATES (ANGSTROEM)
--------------------------------
 C      0   0   0     0.000000000000     0.00000000     0.00000000
 N      1   0   0     1.354791683235     0.00000000     0.00000000
 N      1   2   0     1.290085624256   122.76917407     0.00000000
 C      3   1   2     1.402006490336   122.79931142   182.05122402
 N      4   3   1     1.283969766712   130.26270417   358.74741952
 N      3   1   2     5.048865647259   134.89313615     5.38892630
 C      6   3   1     1.380613632062    14.15843837   192.35269137
 O      7   6   3     1.224981947618   122.00135434   180.43237909
 N      7   6   8     1.386115120556   116.88098242   183.84874517
 C      9   7   6     1.365660531062   129.07372201     0.87124672
 O     10   9   7     1.224197995826   123.27295492   180.04489393
 H      1   2   3     1.105460427671   112.62218691   182.33391221
 H      2   1   3     1.015115110576   117.65090590   204.80395119
 H      2   1   3     1.036207273129   116.65089975   345.41721245
 H      4   3   1     1.097967231280   112.97380824   179.42191406
 H      5   4   3     1.026767826972   112.32570134     0.75375878
 H      6   3   1     1.017354216492   106.88817160    48.17582700
 H      6   3   1     1.015963450694   125.41482795   183.13560820
 H      9   7   6     1.047974471783   114.88418409   179.67235300
 H     10   9   7     1.110562392400   114.91342409     1.00004706

---------------------------
INTERNAL COORDINATES (A.U.)
---------------------------
 C      0   0   0     0.000000000000     0.00000000     0.00000000
 N      1   0   0     2.560185249828     0.00000000     0.00000000
 N      1   2   0     2.437908519153   122.76917407     0.00000000
 C      3   1   2     2.649408304716   122.79931142   182.05122402
 N      4   3   1     2.426351223321   130.26270417   358.74741952
 N      3   1   2     9.540973360283   134.89313615     5.38892630
 C      6   3   1     2.608981661356    14.15843837   192.35269137
 O      7   6   3     2.314880399996   122.00135434   180.43237909
 N      7   6   8     2.619377967939   116.88098242   183.84874517
 C      9   7   6     2.580724395612   129.07372201     0.87124672
 O     10   9   7     2.313398945807   123.27295492   180.04489393
 H      1   2   3     2.089017460185   112.62218691   182.33391221
 H      2   1   3     1.918289553393   117.65090590   204.80395119
 H      2   1   3     1.958147964191   116.65089975   345.41721245
 H      4   3   1     2.074857371139   112.97380824   179.42191406
 H      5   4   3     1.940309996098   112.32570134     0.75375878
 H      6   3   1     1.922520850360   106.88817160    48.17582700
 H      6   3   1     1.919892683886   125.41482795   183.13560820
 H      9   7   6     1.980384747010   114.88418409   179.67235300
 H     10   9   7     2.098658776268   114.91342409     1.00004706



           ************************************************************
           *        Program running with 6 parallel MPI-processes     *
           *              working on a common directory               *
           ************************************************************
 One Electron integrals                  ... done
 Pre-screening matrix                    ... done


           ************************************************************
           *        Program running with 6 parallel MPI-processes     *
           *              working on a common directory               *
           ************************************************************

Diagonalization of the overlap matrix:
Smallest eigenvalue                        ... 4.635e-03
Time for diagonalization                   ...    0.010 sec
Threshold for overlap eigenvalues          ... 1.000e-08
Number of eigenvalues below threshold      ... 0
Time for construction of square roots      ...    0.005 sec
Total time needed                          ...    0.015 sec

-------------------
DFT GRID GENERATION
-------------------

General Integration Accuracy     IntAcc      ...  4.340
Radial Grid Type                 RadialGrid  ... Gauss-Chebyshev
Angular Grid (max. acc.)         AngularGrid ... Lebedev-110
Angular grid pruning method      GridPruning ... 3 (G Style)
Weight generation scheme         WeightScheme... Becke
Basis function cutoff            BFCut       ...    1.0000e-11
Integration weight cutoff        WCut        ...    1.0000e-14
Grids for H and He will be reduced by one unit

# of grid points (after initial pruning)     ...  25712 (   0.0 sec)
# of grid points (after weights+screening)   ...  23867 (   0.0 sec)
nearest neighbour list constructed           ...    0.0 sec
Grid point re-assignment to atoms done       ...    0.0 sec
Grid point division into batches done        ...    0.0 sec
Reduced shell lists constructed in    0.1 sec

Total number of grid points                  ...    23867
Total number of batches                      ...      382
Average number of points per batch           ...       62
Average number of grid points per atom       ...     1193
Average number of shells per batch           ...    67.02 (72.06%)
Average number of basis functions per batch  ...   139.42 (70.06%)
Average number of large shells per batch     ...    48.46 (72.31%)
Average number of large basis fcns per batch ...    99.35 (71.26%)
Maximum spatial batch extension              ...   9.89,  8.58, 22.80 au
Average spatial batch extension              ...   0.32,  0.34,  0.50 au

Time for grid setup =    0.153 sec

--------------------
COSX GRID GENERATION
--------------------

General Integration Accuracy     IntAcc      ...  3.340
Radial Grid Type                 RadialGrid  ... Gauss-Chebyshev
Angular Grid (max. acc.)         AngularGrid ... Lebedev-50
Angular grid pruning method      GridPruning ... 3 (G Style)
Weight generation scheme         WeightScheme... Becke
Basis function cutoff            BFCut       ...    1.0000e-11
Integration weight cutoff        WCut        ...    1.0000e-14
Grids for H and He will be reduced by one unit

# of grid points (after initial pruning)     ...   9190 (   0.0 sec)
# of grid points (after weights+screening)   ...   8600 (   0.0 sec)
nearest neighbour list constructed           ...    0.0 sec
Grid point re-assignment to atoms done       ...    0.0 sec
Grid point division into batches done        ...    0.0 sec
Reduced shell lists constructed in    0.0 sec

Total number of grid points                  ...     8600
Total number of batches                      ...      145
Average number of points per batch           ...       59
Average number of grid points per atom       ...      430
Average number of shells per batch           ...    68.12 (73.24%)
Average number of basis functions per batch  ...   141.88 (71.30%)
Average number of large shells per batch     ...    49.27 (72.33%)
Average number of large basis fcns per batch ...   101.81 (71.75%)
Maximum spatial batch extension              ...   5.33,  5.65, 18.65 au
Average spatial batch extension              ...   0.39,  0.38,  0.83 au

Overlap Fitting                  UseSFitting ... on
Constructing numerical overlap ... done (      0.0 sec)
Inverting numerical overlap    ... done (      0.0 sec)
Obtaining analytic overlap     ... done (      0.0 sec)
Final contraction and storage  ... done (      0.0 sec)


General Integration Accuracy     IntAcc      ...  3.670
Radial Grid Type                 RadialGrid  ... Gauss-Chebyshev
Angular Grid (max. acc.)         AngularGrid ... Lebedev-50
Angular grid pruning method      GridPruning ... 3 (G Style)
Weight generation scheme         WeightScheme... Becke
Basis function cutoff            BFCut       ...    1.0000e-11
Integration weight cutoff        WCut        ...    1.0000e-14
Grids for H and He will be reduced by one unit

# of grid points (after initial pruning)     ...  11738 (   0.0 sec)
# of grid points (after weights+screening)   ...  10948 (   0.0 sec)
nearest neighbour list constructed           ...    0.0 sec
Grid point re-assignment to atoms done       ...    0.0 sec
Grid point division into batches done        ...    0.0 sec
Reduced shell lists constructed in    0.0 sec

Total number of grid points                  ...    10948
Total number of batches                      ...      181
Average number of points per batch           ...       60
[...]
Total number of batches                      ...      331
Average number of points per batch           ...       62
Average number of grid points per atom       ...     1026
Average number of shells per batch           ...    67.91 (73.02%)
Average number of basis functions per batch  ...   141.81 (71.26%)
Average number of large shells per batch     ...    49.30 (72.59%)
Average number of large basis fcns per batch ...   101.44 (71.53%)
Maximum spatial batch extension              ...   3.90,  4.38, 12.26 au
Average spatial batch extension              ...   0.31,  0.31,  0.40 au

Overlap Fitting                  UseSFitting ... on
Constructing numerical overlap ... done (      0.0 sec)
Inverting numerical overlap    ... done (      0.0 sec)
Obtaining analytic overlap     ... done (      0.0 sec)
Final contraction and storage  ... done (      0.0 sec)

Time for X-Grid setup             =    0.521 sec
--------------
SCF ITERATIONS
--------------
ITER       Energy         Delta-E        Max-DP      RMS-DP      [F,P]     Damp
               ***  Starting incremental Fock matrix formation  ***
                      *** Initiating the SOSCF procedure ***
                      *** Re-Reading the Fockian *** 
                      *** Removing any level shift *** 
ITER      Energy       Delta-E        Grad      Rot      Max-DP    RMS-DP
  0   -581.80176954 -581.8017695378  0.002062  0.002062  0.006998  0.000190
               *** Restarting incremental Fock matrix formation ***
  1   -581.80239131  -0.0006217757  0.000718  0.002717  0.003053  0.000081
  2   -581.80245792  -0.0000666041  0.000348  0.001679  0.002116  0.000049
  3   -581.80244531   0.0000126098  0.000727  0.000785  0.001354  0.000031
  4   -581.80246361  -0.0000182983  0.000041  0.000107  0.000222  0.000005
  5   -581.80246343   0.0000001766  0.000069  0.000085  0.000157  0.000003
  6   -581.80246370  -0.0000002740  0.000009  0.000034  0.000062  0.000001
  7   -581.80246370   0.0000000036  0.000015  0.000021  0.000041  0.000001
                  ***Gradient check signals convergence***
              ***Rediagonalizing the Fockian in SOSCF/NRSCF***

               *****************************************************
               *                     SUCCESS                       *
               *           SCF CONVERGED AFTER   8 CYCLES          *
               *****************************************************

Setting up the final grid:

General Integration Accuracy     IntAcc      ...  4.670
Radial Grid Type                 RadialGrid  ... Gauss-Chebyshev
Angular Grid (max. acc.)         AngularGrid ... Lebedev-302
Angular grid pruning method      GridPruning ... 3 (G Style)
Weight generation scheme         WeightScheme... Becke
Basis function cutoff            BFCut       ...    1.0000e-11
Integration weight cutoff        WCut        ...    1.0000e-14
Grids for H and He will be reduced by one unit

# of grid points (after initial pruning)     ...  98878 (   0.0 sec)
# of grid points (after weights+screening)   ...  90406 (   0.1 sec)
nearest neighbour list constructed           ...    0.0 sec
Grid point re-assignment to atoms done       ...    0.0 sec
Grid point division into batches done        ...    0.4 sec
Reduced shell lists constructed in    0.6 sec

Total number of grid points                  ...    90406
Total number of batches                      ...     1420
Average number of points per batch           ...       63
Average number of grid points per atom       ...     4520
Average number of shells per batch           ...    64.05 (68.88%)
Average number of basis functions per batch  ...   132.23 (66.45%)
Average number of large shells per batch     ...    46.60 (72.75%)
Average number of large basis fcns per batch ...    95.61 (72.30%)
Maximum spatial batch extension              ...   3.69,  5.73, 13.41 au
Average spatial batch extension              ...   0.20,  0.20,  0.24 au

Final grid set up in    0.8 sec
Final integration                            ... done (   0.4 sec)
Change in XC energy                          ...    -0.000063064
Integrated number of electrons               ...    83.999836509
Previous integrated no of electrons          ...    84.002509380
Old exchange energy                            =    -14.684538126 Eh
New exchange energy                            =    -14.684128040 Eh
Exchange energy change after final integration =      0.000410086 Eh
Total energy after final integration           =   -581.802116688 Eh
Final COS-X integration done in                =     3.072 sec

----------------
TOTAL SCF ENERGY
----------------

Total Energy       :         -581.80211669 Eh          -15831.64046 eV

Components:
Nuclear Repulsion  :          599.85478028 Eh           16322.87841 eV
Electronic Energy  :        -1181.65689697 Eh          -32154.51887 eV
One Electron Energy:        -1982.66580231 Eh          -53951.07930 eV
Two Electron Energy:          801.00890534 Eh           21796.56043 eV

Virial components:
Potential Energy   :        -1160.17144609 Eh          -31569.87003 eV
Kinetic Energy     :          578.36932940 Eh           15738.22957 eV
Virial Ratio       :            2.00593529


DFT components:
N(Alpha)           :       41.999918254570 electrons
N(Beta)            :       41.999918254570 electrons
N(Total)           :       83.999836509140 electrons
E(X)               :      -58.440591438580 Eh       
E(C)               :       -3.418805147481 Eh       
E(XC)              :      -61.859396586060 Eh       

---------------
SCF CONVERGENCE
---------------

  Last Energy change         ...   -1.0369e-08  Tolerance :   1.0000e-08
  Last MAX-Density change    ...    3.7735e-13  Tolerance :   1.0000e-07
  Last RMS-Density change    ...    2.9046e-15  Tolerance :   5.0000e-09
  Last Orbital Gradient      ...    1.6398e-06  Tolerance :   1.0000e-05
  Last Orbital Rotation      ...    6.2385e-06  Tolerance :   1.0000e-05

             **** THE GBW FILE WAS UPDATED (AT-v/e/frag_26_c00001.gbw) ****
             **** DENSITY FILE WAS UPDATED (AT-v/e/frag_26_c00001.scfp.tmp) ****
             **** ENERGY FILE WAS UPDATED (AT-v/e/frag_26_c00001.en.tmp) ****
----------------
ORBITAL ENERGIES
----------------

  NO   OCC          E(Eh)            E(eV) 
   0   2.0000     -19.137769      -520.7652 
   1   2.0000     -19.115277      -520.1531 
   2   2.0000     -14.362049      -390.8112 
   3   2.0000     -14.361334      -390.7918 
   4   2.0000     -14.360241      -390.7620 
   5   2.0000     -14.317205      -389.5910 
   6   2.0000     -14.294123      -388.9629 
   7   2.0000     -10.325683      -280.9761 
   8   2.0000     -10.308728      -280.5148 
   9   2.0000     -10.280657      -279.7509 
  10   2.0000     -10.236313      -278.5442 
  11   2.0000      -1.065568       -28.9956 
  12   2.0000      -1.049141       -28.5486 
  13   2.0000      -0.970652       -26.4128 
  14   2.0000      -0.937844       -25.5200 
  15   2.0000      -0.909793       -24.7567 
  16   2.0000      -0.899926       -24.4882 
  17   2.0000      -0.839566       -22.8457 
  18   2.0000      -0.663621       -18.0580 
  19   2.0000      -0.657435       -17.8897 
  20   2.0000      -0.620223       -16.8771 
  21   2.0000      -0.588349       -16.0098 
  22   2.0000      -0.566405       -15.4127 
  23   2.0000      -0.553068       -15.0498 
  24   2.0000      -0.517502       -14.0819 
  25   2.0000      -0.497684       -13.5427 
  26   2.0000      -0.485999       -13.2247 
  27   2.0000      -0.457411       -12.4468 
  28   2.0000      -0.451160       -12.2767 
  29   2.0000      -0.441438       -12.0121 
  30   2.0000      -0.426438       -11.6040 
  31   2.0000      -0.418639       -11.3918 
  32   2.0000      -0.398536       -10.8447 
  33   2.0000      -0.387435       -10.5426 
  34   2.0000      -0.333000        -9.0614 
  35   2.0000      -0.302308        -8.2262 
  36   2.0000      -0.292259        -7.9528 
  37   2.0000      -0.284136        -7.7317 
  38   2.0000      -0.276192        -7.5156 
  39   2.0000      -0.266587        -7.2542 
  40   2.0000      -0.245836        -6.6895 
  41   2.0000      -0.238066        -6.4781 
  42   0.0000      -0.023398        -0.6367 
  43   0.0000      -0.017006        -0.4628 
  44   0.0000       0.042531         1.1573 
  45   0.0000       0.048579         1.3219 
  46   0.0000       0.062537         1.7017 
  47   0.0000       0.067323         1.8320 
  48   0.0000       0.083203         2.2641 
  49   0.0000       0.093446         2.5428 
  50   0.0000       0.121777         3.3137 
  51   0.0000       0.139054         3.7838 
  52   0.0000       0.147188         4.0052 
  53   0.0000       0.172480         4.6934 
  54   0.0000       0.196963         5.3596 
  55   0.0000       0.227930         6.2023 
  56   0.0000       0.267157         7.2697 
  57   0.0000       0.279397         7.6028 
  58   0.0000       0.288141         7.8407 
  59   0.0000       0.297667         8.0999 
  60   0.0000       0.329878         8.9764 
  61   0.0000       0.337228         9.1764 
  62   0.0000       0.371186        10.1005 
  63   0.0000       0.397419        10.8143 
  64   0.0000       0.434427        11.8214 
  65   0.0000       0.448233        12.1970 
  66   0.0000       0.452904        12.3242 
  67   0.0000       0.457564        12.4509 
  68   0.0000       0.472355        12.8534 
  69   0.0000       0.492721        13.4076 
  70   0.0000       0.500285        13.6135 
  71   0.0000       0.516809        14.0631 
  72   0.0000       0.524988        14.2857 
  73   0.0000       0.542885        14.7726 
  74   0.0000       0.551272        15.0009 
  75   0.0000       0.557453        15.1691 
  76   0.0000       0.580326        15.7915 
  77   0.0000       0.590900        16.0792 
  78   0.0000       0.612507        16.6672 
  79   0.0000       0.626202        17.0398 
  80   0.0000       0.654497        17.8098 
  81   0.0000       0.659160        17.9366 
  82   0.0000       0.673169        18.3179 
  83   0.0000       0.677171        18.4268 
  84   0.0000       0.694449        18.8969 
  85   0.0000       0.722367        19.6566 
  86   0.0000       0.737935        20.0802 
  87   0.0000       0.758690        20.6450 
  88   0.0000       0.772004        21.0073 
  89   0.0000       0.798829        21.7372 
  90   0.0000       0.811776        22.0896 
  91   0.0000       0.823825        22.4174 
  92   0.0000       0.833280        22.6747 
  93   0.0000       0.842538        22.9266 
  94   0.0000       0.852168        23.1887 
  95   0.0000       0.883701        24.0467 
  96   0.0000       0.899329        24.4720 
  97   0.0000       0.902788        24.5661 
  98   0.0000       0.940274        25.5862 
  99   0.0000       0.950698        25.8698 
 100   0.0000       0.969039        26.3689 
 101   0.0000       0.980423        26.6787 
 102   0.0000       1.007620        27.4187 
 103   0.0000       1.013694        27.5840 
 104   0.0000       1.034344        28.1459 
 105   0.0000       1.060300        28.8522 
 106   0.0000       1.080386        29.3988 
 107   0.0000       1.096711        29.8430 
 108   0.0000       1.106567        30.1112 
 109   0.0000       1.116769        30.3888 
 110   0.0000       1.121600        30.5203 
 111   0.0000       1.127274        30.6747 
 112   0.0000       1.159587        31.5540 
 113   0.0000       1.183634        32.2083 
 114   0.0000       1.199578        32.6422 
 115   0.0000       1.228278        33.4232 
 116   0.0000       1.239863        33.7384 
 117   0.0000       1.253961        34.1220 
 118   0.0000       1.265618        34.4392 
 119   0.0000       1.300511        35.3887 
 120   0.0000       1.333324        36.2816 
 121   0.0000       1.377899        37.4945 
 122   0.0000       1.410409        38.3792 
 123   0.0000       1.433510        39.0078 
 124   0.0000       1.450730        39.4764 
 125   0.0000       1.459787        39.7228 
 126   0.0000       1.478895        40.2428 
 127   0.0000       1.489898        40.5422 
 128   0.0000       1.504573        40.9415 
 129   0.0000       1.527745        41.5720 
 130   0.0000       1.541269        41.9401 
 131   0.0000       1.574592        42.8468 
 132   0.0000       1.593437        43.3596 
 133   0.0000       1.608468        43.7686 
 134   0.0000       1.615076        43.9484 
 135   0.0000       1.624243        44.1979 
 136   0.0000       1.633107        44.4391 
 137   0.0000       1.663271        45.2599 
 138   0.0000       1.683790        45.8183 
 139   0.0000       1.692080        46.0438 
 140   0.0000       1.703944        46.3667 
 141   0.0000       1.722274        46.8655 
 142   0.0000       1.736675        47.2573 
 143   0.0000       1.742164        47.4067 
 144   0.0000       1.784291        48.5530 
 145   0.0000       1.800750        49.0009 
 146   0.0000       1.825016        49.6612 
 147   0.0000       1.859353        50.5956 
 148   0.0000       1.864675        50.7404 
 149   0.0000       1.880075        51.1595 
 150   0.0000       1.904471        51.8233 
 151   0.0000       1.948800        53.0296 
 152   0.0000       2.016658        54.8760 
 153   0.0000       2.035249        55.3819 
 154   0.0000       2.054622        55.9091 
 155   0.0000       2.059208        56.0339 
 156   0.0000       2.105792        57.3015 
 157   0.0000       2.119387        57.6714 
 158   0.0000       2.148321        58.4588 
 159   0.0000       2.202876        59.9433 
 160   0.0000       2.215625        60.2902 
 161   0.0000       2.230541        60.6961 
 162   0.0000       2.252980        61.3067 
 163   0.0000       2.268658        61.7333 
 164   0.0000       2.287468        62.2452 
 165   0.0000       2.302440        62.6526 
 166   0.0000       2.353455        64.0408 
 167   0.0000       2.362653        64.2911 
 168   0.0000       2.378796        64.7303 
 169   0.0000       2.398812        65.2750 
 170   0.0000       2.409870        65.5759 
 171   0.0000       2.429677        66.1149 
 172   0.0000       2.463568        67.0371 
 173   0.0000       2.501606        68.0722 
 174   0.0000       2.535715        69.0003 
 175   0.0000       2.559324        69.6427 
 176   0.0000       2.605073        70.8876 
 177   0.0000       2.632353        71.6300 
 178   0.0000       2.658320        72.3366 
 179   0.0000       2.688414        73.1555 
 180   0.0000       2.702279        73.5328 
 181   0.0000       2.722783        74.0907 
 182   0.0000       2.726555        74.1933 
 183   0.0000       2.760875        75.1272 
 184   0.0000       2.775685        75.5302 
 185   0.0000       2.810595        76.4802 
 186   0.0000       2.828407        76.9649 
 187   0.0000       2.917690        79.3944 
 188   0.0000       2.981918        81.1421 
 189   0.0000       3.045502        82.8723 
 190   0.0000       3.060479        83.2799 
 191   0.0000       3.088051        84.0301 
 192   0.0000       3.112642        84.6993 
 193   0.0000       3.306251        89.9677 
 194   0.0000       3.353361        91.2496 
 195   0.0000       3.392997        92.3281 
 196   0.0000       3.460174        94.1561 
 197   0.0000       3.489951        94.9664 
 198   0.0000       3.510369        95.5220 
-------
TIMINGS
-------

Total SCF time: 0 days 0 hours 0 min 21 sec 

Total time                  ....      21.249 sec
Sum of individual times     ....      21.149 sec  ( 99.5%)

Fock matrix formation       ....      19.464 sec  ( 91.6%)
  Split-RI-J                ....       2.921 sec  ( 15.0% of F)
  Chain of spheres X        ....      15.170 sec  ( 77.9% of F)
  COS-X 1 center corr.      ....       0.000 sec  (  0.0% of F)
  XC integration            ....       1.298 sec  (  6.7% of F)
    Basis function eval.    ....       0.495 sec  ( 38.1% of XC)
    Density eval.           ....       0.226 sec  ( 17.4% of XC)
    XC-Functional eval.     ....       0.054 sec  (  4.2% of XC)
    XC-Potential eval.      ....       0.430 sec  ( 33.1% of XC)
Diagonalization             ....       0.013 sec  (  0.1%)
Density matrix formation    ....       0.023 sec  (  0.1%)
Population analysis         ....       0.000 sec  (  0.0%)
Initial guess               ....       0.014 sec  (  0.1%)
Orbital Transformation      ....       0.000 sec  (  0.0%)
Orbital Orthonormalization  ....       0.010 sec  (  0.0%)
DIIS solution               ....       0.003 sec  (  0.0%)
SOSCF solution              ....       0.160 sec  (  0.8%)
Grid generation             ....       1.474 sec  (  6.9%)


-------------------------------------------------------------------------------
                          DFT DISPERSION CORRECTION                            
                                                                               
                              DFTD3 V3.1  Rev 1                                
                          USING Becke-Johnson damping                          
-------------------------------------------------------------------------------
The B3LYP functional is recognized
Active option DFTDOPT                   ...         4   

molecular C6(AA) [au] = 4049.258899 


            DFT-D V3
 parameters
 s6 scaling factor         :     1.0000 
 a1 scaling factor         :     0.3981 
 s8 scaling factor         :     1.9889 
 a2 scaling factor         :     4.4211 
 ad hoc parameters k1-k3   :    16.0000     1.3333    -4.0000 

 Edisp/kcal,au: -18.880770383164  -0.030088419617 
 E6   /kcal   :  -9.315481694 
 E8   /kcal   :  -9.565288689 
 % E8         :  50.661538139 

-------------------------   ----------------
Dispersion correction           -0.030088420
-------------------------   ----------------


-------------------------   --------------------
FINAL SINGLE POINT ENERGY      -581.832205107490
-------------------------   --------------------

                                *** OPTIMIZATION RUN DONE ***

                            ***************************************
                            *     ORCA property calculations      *
                            ***************************************

                                    ---------------------
                                    Active property flags
                                    ---------------------
   (+) Dipole Moment


------------------------------------------------------------------------------
                       ORCA ELECTRIC PROPERTIES CALCULATION
------------------------------------------------------------------------------

Dipole Moment Calculation                       ... on
Quadrupole Moment Calculation                   ... off
Polarizability Calculation                      ... off
GBWName                                         ... AT-v/e/frag_26_c00001.gbw
Electron density file                           ... AT-v/e/frag_26_c00001.scfp.tmp
The origin for moment calculation is the CENTER OF MASS  = (-1.151546,  0.753875  0.003834)

-------------
DIPOLE MOMENT
-------------
                                X             Y             Z
Electronic contribution:     -2.09356       0.87177      -0.40121
Nuclear contribution   :      1.08584      -2.36013       0.63634
                        -----------------------------------------
Total Dipole Moment    :     -1.00772      -1.48835       0.23513
                        -----------------------------------------
Magnitude (a.u.)       :      1.81273
Magnitude (Debye)      :      4.60759


Timings for individual modules:

Sum of individual times         ...      405.598 sec (=   6.760 min)
GTO integral calculation        ...       10.861 sec (=   0.181 min)   2.7 %
SCF iterations                  ...      315.514 sec (=   5.259 min)  77.8 %
SCF Gradient evaluation         ...       77.997 sec (=   1.300 min)  19.2 %
Geometry relaxation             ...        1.226 sec (=   0.020 min)   0.3 %
                             ****ORCA TERMINATED NORMALLY****
TOTAL RUN TIME: 0 days 0 hours 6 minutes 49 seconds 172 msec
