
                                 *****************
                                 * O   R   C   A *
                                 *****************

           --- An Ab Initio, DFT and Semiempirical electronic structure package ---

                  #######################################################
                  #                        -***-                        #
                  #  Department of molecular theory and spectroscopy    #
                  #              Directorship: Frank Neese              #
                  # Max Planck Institute for Chemical Energy Conversion #
                  #                  D-45470 Muelheim/Ruhr              #
                  #                       Germany                       #
                  #                                                     #
                  #                  All rights reserved                #
                  #                        -***-                        #
                  #######################################################


                         Program Version 4.0.1.2 - RELEASE -


 With contributions from (in alphabetic order):
   Daniel Aravena         : Magnetic Properties
   Michael Atanasov       : Ab Initio Ligand Field Theory
   Ute Becker             : Parallelization
   Martin Brehm           : Molecular dynamics
   Dmytro Bykov           : SCF Hessian
   Vijay G. Chilkuri      : MRCI spin determinant printing
   Dipayan Datta          : RHF DLPNO-CCSD density
   Achintya Kumar Dutta   : EOM-CC, STEOM-CC
   Dmitry Ganyushin       : Spin-Orbit,Spin-Spin,Magnetic field MRCI
   Yang Guo               : DLPNO-NEVPT2, CIM, IAO-localization
   Andreas Hansen         : Spin unrestricted coupled pair/coupled cluster methods
   Lee Huntington         : MR-EOM, pCC
   Robert Izsak           : Overlap fitted RIJCOSX, COSX-SCS-MP3, EOM
   Christian Kollmar      : KDIIS, OOCD, Brueckner-CCSD(T), CCSD density
   Simone Kossmann        : Meta GGA functionals, TD-DFT gradient, OOMP2, MP2 Hessian
   Martin Krupicka        : AUTO-CI
   Dagmar Lenk            : GEPOL surface
   Dimitrios Liakos       : Extrapolation schemes; parallel MDCI
   Dimitrios Manganas     : ROCIS; embedding schemes
   Dimitrios Pantazis     : SARC Basis sets
   Taras Petrenko         : DFT Hessian,TD-DFT gradient, ASA, ECA, R-Raman, ABS, FL, XAS/XES, NRVS
   Peter Pinski           : DLPNO-MP2
   Christoph Reimann      : Effective Core Potentials
   Marius Retegan         : Local ZFS, SOC
   Christoph Riplinger    : Optimizer, TS searches, QM/MM, DLPNO-CCSD(T), (RO)-DLPNO pert. Triples
   Tobias Risthaus        : Range-separated hybrids, TD-DFT gradient, RPA, STAB
   Michael Roemelt        : Restricted open shell CIS
   Masaaki Saitow         : Open-shell DLPNO
   Barbara Sandhoefer     : DKH picture change effects
   Kantharuban Sivalingam : CASSCF convergence, NEVPT2, FIC-MRCI
   Georgi Stoychev        : AutoAux
   Boris Wezisla          : Elementary symmetry handling
   Frank Wennmohs         : Technical directorship


 We gratefully acknowledge several colleagues who have allowed us to
 interface, adapt or use parts of their codes:
   Stefan Grimme, W. Hujo, H. Kruse,             : VdW corrections, initial TS optimization,
                  C. Bannwarth                     DFT functionals, gCP, sTDA/sTD-DF
   Ed Valeev                                     : LibInt (2-el integral package), F12 methods
   Garnet Chan, S. Sharma, J. Yang, R. Olivares  : DMRG
   Ulf Ekstrom                                   : XCFun DFT Library
   Mihaly Kallay                                 : mrcc  (arbitrary order and MRCC methods)
   Andreas Klamt, Michael Diedenhofen            : otool_cosmo (COSMO solvation model)
   Jiri Pittner, Ondrej Demel                    : Mk-CCSD
   Frank Weinhold                                : gennbo (NPA and NBO analysis)
   Christopher J. Cramer and Donald G. Truhlar   : smd solvation model


 Your calculation uses the libint2 library for the computation of 2-el integrals
 For citations please refer to: http://libint.valeyev.net

 This ORCA versions uses:
   CBLAS   interface :  Fast vector & matrix operations
   LAPACKE interface :  Fast linear algebra routines
   SCALAPACK package :  Parallel linear algebra routines


Your calculation utilizes the atom-pairwise dispersion correction
with the Becke-Johnson damping scheme (D3BJ)
Cite in your paper:
S.Grimme, S.Ehrlich, L.Goerigk, J Comput Chem, (2011), 32, 1456–1465 
S.Grimme, J.Antony, S.Ehrlich and H.Krieg, J.Chem.Phys., 132, (2010), 154104 
   

Your calculation utilizes the basis: cc-pVDZ 
       H, B-Ne : Obtained from the ccRepo (grant-hill.group.shef.ac.uk/ccrepo) Feb. 2017
                 T. H. Dunning, Jr., J. Chem. Phys. 90, 1007 (1989)
            He : Obtained from the ccRepo (grant-hill.group.shef.ac.uk/ccrepo) Feb. 2017
                 D. E. Woon, T. H. Dunning, Jr., J. Chem. Phys. 100, 2975 (1994)
  Li-Be, Na-Mg : Obtained from the ccRepo (grant-hill.group.shef.ac.uk/ccrepo) Feb. 2017
                 B. P. Prascher, D. E. Woon, K. A. Peterson, T. H. Dunning, Jr., A. K. Wilson, Theor. Chem. Acc. 128, 69 (2011)
         Al-Ar : Obtained from the ccRepo (grant-hill.group.shef.ac.uk/ccrepo) Feb. 2017
                 D. E. Woon, T. H. Dunning, Jr., J. Chem. Phys. 98, 1358 (1993)
            Ca : Obtained from the Peterson Research Group Website (tyr0.chem.wsu.edu/~kipeters) Feb. 2017
                 J. Koput, K. A. Peterson, J. Phys. Chem. 106, 9595 (2002)
         Sc-Zn : Obtained from the ccRepo (grant-hill.group.shef.ac.uk/ccrepo) Feb. 2017
                 N. B. Balabanov, K. A. Peterson, J. Chem. Phys. 123, 064107 (2005)
                 N. B. Balabanov, K. A. Peterson, J. Chem. Phys. 125, 074110 (2006)
         Ga-Kr : Obtained from the ccRepo (grant-hill.group.shef.ac.uk/ccrepo) Feb. 2017
                 A. K. Wilson, D. E. Woon, K. A. Peterson, T. H. Dunning, Jr., J. Chem. Phys. 110, 7667 (1999)

Your calculation utilizes the auxiliary basis: def2/J
   F. Weigend, Phys. Chem. Chem. Phys. 8, 1057 (2006).

================================================================================
                                        WARNINGS
                       Please study these warnings very carefully!
================================================================================

Warning: TCutStore was < 0. Adjusted to Thresh (uncritical)

WARNING: Geometry Optimization
  ===> : Switching off AutoStart
         For restart on a previous wavefunction, please use MOREAD

INFO   : the flag for use of LIBINT has been found!

================================================================================
                                       INPUT FILE
================================================================================
NAME = AT-v/e/frag_20_c00001.com
|  1> %pal nprocs 6 end
|  2> %maxcore 1000
|  3> ! b3lyp TIGHTSCF nopop D3BJ
|  4> ! cc-pvdz def2/J RIJCOSX
|  5> ! Opt
|  6> 
|  7> %geom
|  8> maxiter 60
|  9> TolE 1e-4
| 10> TolRMSG 2e-3
| 11> TolMaxG 3e-3
| 12> TolRMSD 2e-2
| 13> TolMaxD 3e-2
| 14> end
| 15> 
| 16> *xyz 0 1
| 17> C 3.1289 -0.5592 -0.0216
| 18> C 1.6417 -0.531 -0.1428
| 19> N 0.9682 -1.6958 -0.3386
| 20> N 0.9284 0.5499 -0.0741
| 21> C 3.9098 0.5101 0.1725
| 22> N -1.869 0.4588 0.046
| 23> C -2.4551 -0.7551 0.1626
| 24> O -1.7956 -1.778 0.3161
| 25> C -3.9357 -0.8126 0.1019
| 26> C -4.7753 0.2183 -0.062
| 27> H 3.5824 -1.5407 -0.1246
| 28> H 1.3492 -2.5271 0.0922
| 29> H -0.0372 -1.6279 -0.149
| 30> H 1.5326 1.3622 0.0584
| 31> H 4.9873 0.3868 0.2359
| 32> H 3.5334 1.5199 0.2764
| 33> H -2.3516 1.3064 -0.1981
| 34> H -0.8424 0.4943 0.0158
| 35> H -4.3313 -1.8196 0.2036
| 36> H -4.4487 1.2451 -0.1665
| 37> H -5.8468 0.0415 -0.0904
| 38> *
| 39> 
| 40> 
| 41>                          ****END OF INPUT****
================================================================================

                       *****************************
                       * Geometry Optimization Run *
                       *****************************

Geometry optimization settings:
Update method            Update   .... BFGS
Choice of coordinates    CoordSys .... Redundant Internals
Initial Hessian          InHess   .... Almoef's Model

Convergence Tolerances:
Energy Change            TolE     ....  1.0000e-04 Eh
Max. Gradient            TolMAXG  ....  3.0000e-03 Eh/bohr
RMS Gradient             TolRMSG  ....  2.0000e-03 Eh/bohr
Max. Displacement        TolMAXD  ....  3.0000e-02 bohr
RMS Displacement         TolRMSD  ....  2.0000e-02 bohr

------------------------------------------------------------------------------
                        ORCA OPTIMIZATION COORDINATE SETUP
------------------------------------------------------------------------------

The optimization will be done in new redundant internal coordinates
Making redundant internal coordinates   ...  (new redundants) done
Evaluating the initial hessian          ...  (Almloef) done
Evaluating the coordinates              ...  done
Calculating the B-matrix                .... done
Calculating the G-matrix                .... done
Diagonalizing the G-matrix              .... done
Small eigenvalue found = 1.337e-02
The first mode is                       ....   46
The number of degrees of freedom        ....   57

    -----------------------------------------------------------------
                    Redundant Internal Coordinates


    -----------------------------------------------------------------
         Definition                    Initial Value    Approx d2E/dq
    -----------------------------------------------------------------
      1. B(C   1,C   0)                  1.4924         0.428915   
      2. B(N   2,C   1)                  1.3597         0.625557   
      3. B(N   3,C   1)                  1.2969         0.787889   
      4. B(C   4,C   0)                  1.3382         0.755650   
      5. B(C   6,N   5)                  1.3530         0.641026   
      6. B(O   7,C   6)                  1.2267         1.019502   
      7. B(C   8,C   6)                  1.4830         0.444047   
      8. B(C   9,C   8)                  1.3396         0.751861   
      9. B(H  10,C   0)                  1.0861         0.365296   
     10. B(H  11,N   2)                  1.0108         0.431366   
     11. B(H  12,O   7)                  1.8251         0.021669   
     12. B(H  12,N   2)                  1.0254         0.408950   
     13. B(H  13,N   3)                  1.0210         0.415568   
     14. B(H  14,C   4)                  1.0864         0.364916   
     15. B(H  15,C   4)                  1.0827         0.369932   
     16. B(H  16,N   5)                  1.0054         0.440015   
     17. B(H  17,H  12)                  2.2758         0.000884   
     18. B(H  17,N   3)                  1.7740         0.026143   
     19. B(H  17,N   5)                  1.0277         0.405531   
     20. B(H  18,C   8)                  1.0867         0.364508   
     21. B(H  19,C   9)                  1.0825         0.370097   
     22. B(H  20,C   9)                  1.0864         0.364948   
     23. A(C   1,C   0,H  10)          115.1804         0.332581   
     24. A(C   1,C   0,C   4)          125.3224         0.420996   
     25. A(C   4,C   0,H  10)          119.4843         0.365893   
     26. A(N   2,C   1,N   3)          116.6923         0.448053   
     27. A(C   0,C   1,N   2)          119.2830         0.404480   
     28. A(C   0,C   1,N   3)          124.0247         0.421392   
     29. A(C   1,N   2,H  12)          113.7243         0.355782   
     30. A(H  11,N   2,H  12)          110.1955         0.300387   
     31. A(C   1,N   2,H  11)          117.1579         0.359024   
     32. A(H  13,N   3,H  17)          127.5230         0.201485   
     33. A(C   1,N   3,H  17)          121.7088         0.239840   
     34. A(C   1,N   3,H  13)          110.1507         0.371107   
     35. A(C   0,C   4,H  14)          119.7710         0.365827   
     36. A(H  14,C   4,H  15)          116.4281         0.292685   
     37. A(C   0,C   4,H  15)          123.8008         0.366684   
     38. A(H  16,N   5,H  17)          116.3107         0.300936   
     39. A(C   6,N   5,H  17)          117.7917         0.356752   
     40. A(C   6,N   5,H  16)          124.7038         0.361744   
     41. A(O   7,C   6,C   8)          120.6339         0.444133   
     42. A(N   5,C   6,C   8)          117.6293         0.408729   
     43. A(N   5,C   6,O   7)          121.7366         0.471729   
     44. A(C   6,O   7,H  12)          114.6776         0.242249   
     45. A(C   9,C   8,H  18)          119.7627         0.365443   
     46. A(C   6,C   8,H  18)          113.3011         0.334380   
     47. A(C   6,C   8,C   9)          126.9361         0.423231   
     48. A(H  19,C   9,H  20)          116.7059         0.292710   
     49. A(C   8,C   9,H  20)          119.7446         0.365518   
     50. A(C   8,C   9,H  19)          123.5489         0.366396   
     51. A(N   2,H  12,H  17)          114.9647         0.131131   
     52. A(N   2,H  12,O   7)          170.5358         0.196415   
     53. A(O   7,H  12,H  17)           73.5816         0.110669   
     54. A(N   5,H  17,H  12)          108.8663         0.131051   
     55. A(N   3,H  17,H  12)           70.8753         0.111609   
     56. D(N   2,C   1,C   0,H  10)      1.3578         0.012571   
     57. D(N   3,C   1,C   0,C   4)      0.0852         0.012571   
     58. D(N   3,C   1,C   0,H  10)   -178.5950         0.012571   
     59. D(N   2,C   1,C   0,C   4)   -179.9620         0.012571   
     60. D(H  12,N   2,C   1,N   3)    -16.3079         0.031732   
     61. D(H  12,N   2,C   1,C   0)    163.7360         0.031732   
     62. D(H  11,N   2,C   1,N   3)   -146.7943         0.031732   
     63. D(H  11,N   2,C   1,C   0)     33.2495         0.031732   
     64. D(H  17,N   3,C   1,C   0)   -170.7624         0.052729   
     65. D(H  17,N   3,C   1,N   2)      9.2837         0.052729   
     66. D(H  13,N   3,C   1,C   0)      0.8650         0.052729   
     67. D(H  13,N   3,C   1,N   2)   -179.0889         0.052729   
     68. D(H  14,C   4,C   0,H  10)     -0.6487         0.040781   
     69. D(H  15,C   4,C   0,C   1)      0.8769         0.040781   
     70. D(H  14,C   4,C   0,C   1)   -179.2766         0.040781   
     71. D(H  15,C   4,C   0,H  10)    179.5048         0.040781   
     72. D(H  16,N   5,N   3,H  13)     28.3505         0.001501   
     73. D(H  16,N   5,N   3,C   1)   -160.9720         0.001501   
     74. D(C   6,N   5,N   3,H  13)   -164.3284         0.001501   
     75. D(C   6,N   5,N   3,C   1)      6.3492         0.001501   
     76. D(C   8,C   6,N   5,H  17)   -175.4432         0.033455   
     77. D(C   8,C   6,N   5,H  16)     -8.4223         0.033455   
     78. D(O   7,C   6,N   5,H  17)      4.7025         0.033455   
     79. D(O   7,C   6,N   5,H  16)    171.7234         0.033455   
     80. D(H  12,O   7,C   6,C   8)    161.6173         0.085653   
     81. D(H  12,O   7,C   6,N   5)    -18.5327         0.085653   
     82. D(H  18,C   8,C   6,O   7)     -0.0959         0.013448   
     83. D(H  18,C   8,C   6,N   5)   -179.9519         0.013448   
     84. D(C   9,C   8,C   6,O   7)   -179.9359         0.013448   
     85. D(C   9,C   8,C   6,N   5)      0.2081         0.013448   
     86. D(H  19,C   9,C   8,C   6)     -0.3512         0.040334   
     87. D(H  20,C   9,C   8,H  18)      0.1132         0.040334   
     88. D(H  20,C   9,C   8,C   6)    179.9439         0.040334   
     89. D(H  19,C   9,C   8,H  18)    179.8181         0.040334   
     90. D(H  17,H  12,O   7,C   6)     15.3016         0.001750   
     91. D(N   2,H  12,O   7,C   6)    170.5688         0.001750   
     92. D(H  17,H  12,N   2,H  11)    148.2704         0.207909   
     93. D(H  17,H  12,N   2,C   1)     14.4107         0.207909   
     94. D(O   7,H  12,N   2,H  11)     -5.4541         0.207909   
     95. D(O   7,H  12,N   2,C   1)   -139.3138         0.207909   
     96. D(N   3,H  17,H  12,O   7)    167.4584         0.001508   
     97. D(N   5,H  17,H  12,O   7)    -13.8182         0.001508   
     98. D(N   5,H  17,H  12,N   2)    170.5340         0.001508   
     99. D(H  12,H  17,N   5,H  16)   -159.5981         0.203576   
    100. D(H  12,H  17,N   5,C   6)      8.5150         0.203576   
    101. D(N   3,H  17,H  12,N   2)     -8.1895         0.001508   
    102. D(H  12,H  17,N   3,H  13)   -171.6897         0.001909   
    103. D(H  12,H  17,N   3,C   1)     -1.6145         0.001909   
    -----------------------------------------------------------------

Number of atoms                         .... 21
Number of degrees of freedom            .... 103

         *************************************************************
         *                GEOMETRY OPTIMIZATION CYCLE   1            *
         *************************************************************
---------------------------------
CARTESIAN COORDINATES (ANGSTROEM)
---------------------------------
  C      3.128900   -0.559200   -0.021600
  C      1.641700   -0.531000   -0.142800
  N      0.968200   -1.695800   -0.338600
  N      0.928400    0.549900   -0.074100
  C      3.909800    0.510100    0.172500
  N     -1.869000    0.458800    0.046000
  C     -2.455100   -0.755100    0.162600
  O     -1.795600   -1.778000    0.316100
  C     -3.935700   -0.812600    0.101900
  C     -4.775300    0.218300   -0.062000
  H      3.582400   -1.540700   -0.124600
  H      1.349200   -2.527100    0.092200
  H     -0.037200   -1.627900   -0.149000
  H      1.532600    1.362200    0.058400
  H      4.987300    0.386800    0.235900
  H      3.533400    1.519900    0.276400
  H     -2.351600    1.306400   -0.198100
  H     -0.842400    0.494300    0.015800
  H     -4.331300   -1.819600    0.203600
  H     -4.448700    1.245100   -0.166500
  H     -5.846800    0.041500   -0.090400

----------------------------
CARTESIAN COORDINATES (A.U.)
----------------------------
  NO LB      ZA    FRAG     MASS         X           Y           Z
   0 C     6.0000    0    12.011    5.912764   -1.056735   -0.040818
   1 C     6.0000    0    12.011    3.102363   -1.003445   -0.269853
   2 N     7.0000    0    14.007    1.829633   -3.204598   -0.639861
   3 N     7.0000    0    14.007    1.754422    1.039160   -0.140029
   4 C     6.0000    0    12.011    7.388451    0.963949    0.325978
   5 N     7.0000    0    14.007   -3.531898    0.867006    0.086927
   6 C     6.0000    0    12.011   -4.639467   -1.426932    0.307269
   7 O     8.0000    0    15.999   -3.393192   -3.359933    0.597342
   8 C     6.0000    0    12.011   -7.437395   -1.535591    0.192563
   9 C     6.0000    0    12.011   -9.024009    0.412527   -0.117163
  10 H     1.0000    0     1.008    6.769755   -2.911501   -0.235460
  11 H     1.0000    0     1.008    2.549618   -4.775527    0.174233
  12 H     1.0000    0     1.008   -0.070298   -3.076285   -0.281569
  13 H     1.0000    0     1.008    2.896194    2.574185    0.110360
  14 H     1.0000    0     1.008    9.424631    0.730946    0.445786
  15 H     1.0000    0     1.008    6.677158    2.872195    0.522320
  16 H     1.0000    0     1.008   -4.443880    2.468738   -0.374355
  17 H     1.0000    0     1.008   -1.591905    0.934092    0.029858
  18 H     1.0000    0     1.008   -8.184971   -3.438546    0.384748
  19 H     1.0000    0     1.008   -8.406825    2.352898   -0.314639
  20 H     1.0000    0     1.008  -11.048851    0.078424   -0.170831

--------------------------------
INTERNAL COORDINATES (ANGSTROEM)
--------------------------------
 C      0   0   0     0.000000000000     0.00000000     0.00000000
 C      1   0   0     1.492396904312     0.00000000     0.00000000
 N      2   1   0     1.359668683908   119.28299935     0.00000000
 N      2   1   3     1.296865987680   124.02468037   180.04724093
 C      1   2   3     1.338238435407   125.32242173   180.03798744
 N      4   2   1     2.801458545115   121.62712152   188.71432238
 C      6   4   2     1.353019578572   117.73749198     6.34918649
 O      7   6   4     1.226713866393   121.73662448     5.58360286
 C      7   6   4     1.482958900307   117.62934456   185.43796559
 C      9   7   6     1.339606725871   126.93607080     0.20805786
 H      1   2   3     1.086100133505   115.18036877     1.35776353
 H      3   2   1     1.010845848782   117.15790181    33.24949763
 H      3   2   1     1.025371995912   113.72429686   163.73596720
 H      4   2   1     1.021002047011   110.15074848     0.86500887
 H      5   1   2     1.086383311727   119.77095760   180.72335183
 H      5   1   2     1.082667174158   123.80081413     0.87687652
 H      6   4   2     1.005441858090   116.19776260   199.02800551
 H      6   4   2     1.027657457522     0.78158327   100.53227900
 H      9   7   6     1.086688202752   113.30106757   180.04805076
 H     10   9   7     1.082546096016   123.54886245   359.64882542
 H     10   9   7     1.086359539931   119.74464318   179.94394583

---------------------------
INTERNAL COORDINATES (A.U.)
---------------------------
 C      0   0   0     0.000000000000     0.00000000     0.00000000
 C      1   0   0     2.820221432262     0.00000000     0.00000000
 N      2   1   0     2.569401445455   119.28299935     0.00000000
 N      2   1   3     2.450721549112   124.02468037   180.04724093
 C      1   2   3     2.528904144806   125.32242173   180.03798744
 N      4   2   1     5.293989425802   121.62712152   188.71432238
 C      6   4   2     2.556836457335   117.73749198     6.34918649
 O      7   6   4     2.318153252166   121.73662448     5.58360286
 C      7   6   4     2.802386189441   117.62934456   185.43796559
 C      9   7   6     2.531489839056   126.93607080     0.20805786
 H      1   2   3     2.052431806340   115.18036877     1.35776353
 H      3   2   1     1.910221817809   117.15790181    33.24949763
 H      3   2   1     1.937672257665   113.72429686   163.73596720
 H      4   2   1     1.929414251023   110.15074848     0.86500887
 H      5   1   2     2.052966935627   119.77095760   180.72335183
 H      5   1   2     2.045944453346   123.80081413     0.87687652
 H      6   4   2     1.900009755372   116.19776260   199.02800551
 H      6   4   2     1.941991154198     0.78158327   100.53227900
 H      9   7   6     2.053543096164   113.30106757   180.04805076
 H     10   9   7     2.045715648816   123.54886245   359.64882542
 H     10   9   7     2.052922013443   119.74464318   179.94394583

---------------------
BASIS SET INFORMATION
---------------------
There are 4 groups of distinct atoms

 Group   1 Type C   : 17s4p1d contracted to 3s2p1d pattern {881/31/1}
 Group   2 Type N   : 17s4p1d contracted to 3s2p1d pattern {881/31/1}
 Group   3 Type O   : 17s4p1d contracted to 3s2p1d pattern {881/31/1}
 Group   4 Type H   : 4s1p contracted to 2s1p pattern {31/1}

Atom   0C    basis set group =>   1
Atom   1C    basis set group =>   1
Atom   2N    basis set group =>   2
Atom   3N    basis set group =>   2
Atom   4C    basis set group =>   1
Atom   5N    basis set group =>   2
Atom   6C    basis set group =>   1
Atom   7O    basis set group =>   3
Atom   8C    basis set group =>   1
Atom   9C    basis set group =>   1
Atom  10H    basis set group =>   4
Atom  11H    basis set group =>   4
Atom  12H    basis set group =>   4
Atom  13H    basis set group =>   4
Atom  14H    basis set group =>   4
Atom  15H    basis set group =>   4
Atom  16H    basis set group =>   4
Atom  17H    basis set group =>   4
Atom  18H    basis set group =>   4
Atom  19H    basis set group =>   4
Atom  20H    basis set group =>   4
-------------------------------
AUXILIARY BASIS SET INFORMATION
-------------------------------
There are 4 groups of distinct atoms

 Group   1 Type C   : 12s5p4d2f1g contracted to 6s4p3d1f1g pattern {711111/2111/211/2/1}
 Group   2 Type N   : 12s5p4d2f1g contracted to 6s4p3d1f1g pattern {711111/2111/211/2/1}
 Group   3 Type O   : 12s5p4d2f1g contracted to 6s4p3d1f1g pattern {711111/2111/211/2/1}
 Group   4 Type H   : 5s2p1d contracted to 3s1p1d pattern {311/2/1}

Atom   0C    basis set group =>   1
Atom   1C    basis set group =>   1
Atom   2N    basis set group =>   2
Atom   3N    basis set group =>   2
Atom   4C    basis set group =>   1
Atom   5N    basis set group =>   2
Atom   6C    basis set group =>   1
Atom   7O    basis set group =>   3
Atom   8C    basis set group =>   1
Atom   9C    basis set group =>   1
Atom  10H    basis set group =>   4
Atom  11H    basis set group =>   4
Atom  12H    basis set group =>   4
Atom  13H    basis set group =>   4
Atom  14H    basis set group =>   4
Atom  15H    basis set group =>   4
Atom  16H    basis set group =>   4
Atom  17H    basis set group =>   4
Atom  18H    basis set group =>   4
Atom  19H    basis set group =>   4
Atom  20H    basis set group =>   4


           ************************************************************
           *        Program running with 6 parallel MPI-processes     *
           *              working on a common directory               *
           ************************************************************
------------------------------------------------------------------------------
                           ORCA GTO INTEGRAL CALCULATION
                           -- RI-GTO INTEGRALS CHOSEN --
------------------------------------------------------------------------------

                         BASIS SET STATISTICS AND STARTUP INFO

Gaussian basis set:
 # of primitive gaussian shells          ...  275
 # of primitive gaussian functions       ...  417
 # of contracted shells                  ...   93
 # of contracted basis functions         ...  195
 Highest angular momentum                ...    2
 Maximum contraction depth               ...    8
Auxiliary gaussian basis set:
 # of primitive gaussian shells          ...  328
 # of primitive gaussian functions       ...  876
 # of contracted shells                  ...  205
 # of contracted aux-basis functions     ...  611
 Highest angular momentum                ...    4
 Maximum contraction depth               ...    7
Ratio of auxiliary to basis functions    ...  3.13
Integral package used                  ... LIBINT
 One Electron integrals                  ... done
 Ordering auxiliary basis shells         ... done
 Integral threshhold             Thresh  ...  2.500e-11
 Primitive cut-off               TCut    ...  2.500e-12
 Pre-screening matrix                    ... done
 Shell pair data                         ... 
 Ordering of the shell pairs             ... done (   0.001 sec) 3671 of 4371 pairs
 Determination of significant pairs      ... done (   0.000 sec)
 Creation of shell pair data             ... done (   0.001 sec)
 Storage of shell pair data              ... done (   0.002 sec)
 Shell pair data done in (   0.004 sec)
 Computing two index integrals           ... done
 Cholesky decomposition of the V-matrix  ... done


Timings:
 Total evaluation time                   ...   0.424 sec (  0.007 min)
 One electron matrix time                ...   0.062 sec (  0.001 min) = 14.7%
 Schwartz matrix evaluation time         ...   0.273 sec (  0.005 min) = 64.4%
 Two index repulsion integral time       ...   0.051 sec (  0.001 min) = 12.0%
 Cholesky decomposition of V             ...   0.013 sec (  0.000 min) =  3.2%
 Three index repulsion integral time     ...   0.000 sec (  0.000 min) =  0.0%



           ************************************************************
           *        Program running with 6 parallel MPI-processes     *
           *              working on a common directory               *
           ************************************************************
-------------------------------------------------------------------------------
                                 ORCA SCF
-------------------------------------------------------------------------------

------------
SCF SETTINGS
------------
Hamiltonian:
 Density Functional     Method          .... DFT(GTOs)
 Exchange Functional    Exchange        .... B88
   X-Alpha parameter    XAlpha          ....  0.666667
   Becke's b parameter  XBeta           ....  0.004200
 Correlation Functional Correlation     .... LYP
 LDA part of GGA corr.  LDAOpt          .... VWN-5
 Gradients option       PostSCFGGA      .... off
 Hybrid DFT is turned on
   Fraction HF Exchange ScalHFX         ....  0.200000
   Scaling of DF-GGA-X  ScalDFX         ....  0.720000
   Scaling of DF-GGA-C  ScalDFC         ....  0.810000
   Scaling of DF-LDA-C  ScalLDAC        ....  1.000000
   Perturbative correction              ....  0.000000
   NL short-range parameter             ....  4.800000
 RI-approximation to the Coulomb term is turned on
   Number of auxiliary basis functions  .... 611
   RIJ-COSX (HFX calculated with COS-X)).... on


General Settings:
 Integral files         IntName         .... AT-v/e/frag_20_c00001
 Hartree-Fock type      HFTyp           .... RHF
 Total Charge           Charge          ....    0
 Multiplicity           Mult            ....    1
 Number of Electrons    NEL             ....   76
 Basis Dimension        Dim             ....  195
 Nuclear Repulsion      ENuc            ....    488.0532225211 Eh

Convergence Acceleration:
 DIIS                   CNVDIIS         .... on
   Start iteration      DIISMaxIt       ....    12
   Startup error        DIISStart       ....  0.200000
   # of expansion vecs  DIISMaxEq       ....     5
   Bias factor          DIISBfac        ....   1.050
   Max. coefficient     DIISMaxC        ....  10.000
 Newton-Raphson         CNVNR           .... off
 SOSCF                  CNVSOSCF        .... on
   Start iteration      SOSCFMaxIt      ....   150
   Startup grad/error   SOSCFStart      ....  0.003300
 Level Shifting         CNVShift        .... on
   Level shift para.    LevelShift      ....    0.2500
   Turn off err/grad.   ShiftErr        ....    0.0010
 Zerner damping         CNVZerner       .... off
 Static damping         CNVDamp         .... on
   Fraction old density DampFac         ....    0.7000
   Max. Damping (<1)    DampMax         ....    0.9800
   Min. Damping (>=0)   DampMin         ....    0.0000
   Turn off err/grad.   DampErr         ....    0.1000
 Fernandez-Rico         CNVRico         .... off

SCF Procedure:
 Maximum # iterations   MaxIter         ....   125
 SCF integral mode      SCFMode         .... Direct
   Integral package                     .... LIBINT
 Reset frequeny         DirectResetFreq ....    20
 Integral Threshold     Thresh          ....  2.500e-11 Eh
 Primitive CutOff       TCut            ....  2.500e-12 Eh

Convergence Tolerance:
 Convergence Check Mode ConvCheckMode   .... Total+1el-Energy
 Convergence forced     ConvForced      .... 0
 Energy Change          TolE            ....  1.000e-08 Eh
 1-El. energy change                    ....  1.000e-05 Eh
 Orbital Gradient       TolG            ....  1.000e-05
 Orbital Rotation angle TolX            ....  1.000e-05
 DIIS Error             TolErr          ....  5.000e-07


Diagonalization of the overlap matrix:
Smallest eigenvalue                        ... 1.953e-03
Time for diagonalization                   ...    0.010 sec
Threshold for overlap eigenvalues          ... 1.000e-08
Number of eigenvalues below threshold      ... 0
Time for construction of square roots      ...    0.004 sec
Total time needed                          ...    0.014 sec

-------------------
DFT GRID GENERATION
-------------------

General Integration Accuracy     IntAcc      ...  4.340
Radial Grid Type                 RadialGrid  ... Gauss-Chebyshev
Angular Grid (max. acc.)         AngularGrid ... Lebedev-110
Angular grid pruning method      GridPruning ... 3 (G Style)
Weight generation scheme         WeightScheme... Becke
Basis function cutoff            BFCut       ...    1.0000e-11
Integration weight cutoff        WCut        ...    1.0000e-14
Grids for H and He will be reduced by one unit

# of grid points (after initial pruning)     ...  25492 (   0.0 sec)
# of grid points (after weights+screening)   ...  23692 (   0.0 sec)
nearest neighbour list constructed           ...    0.0 sec
Grid point re-assignment to atoms done       ...    0.0 sec
Grid point division into batches done        ...    0.0 sec
Reduced shell lists constructed in    0.1 sec

Total number of grid points                  ...    23692
Total number of batches                      ...      381
Average number of points per batch           ...       62
Average number of grid points per atom       ...     1128
Average number of shells per batch           ...    66.43 (71.43%)
Average number of basis functions per batch  ...   134.55 (69.00%)
Average number of large shells per batch     ...    49.06 (73.85%)
Average number of large basis fcns per batch ...    99.77 (74.15%)
Maximum spatial batch extension              ...   8.25,  7.83, 19.45 au
Average spatial batch extension              ...   0.33,  0.34,  0.55 au

Time for grid setup =    0.132 sec

------------------------------
INITIAL GUESS: MODEL POTENTIAL
------------------------------
Loading Hartree-Fock densities                     ... done
Calculating cut-offs                               ... done
Setting up the integral package                    ... done
Initializing the effective Hamiltonian             ... done
Starting the Coulomb interaction                   ... done (   0.1 sec)
Reading the grid                                   ... done
Mapping shells                                     ... done
Starting the XC term evaluation                    ... done (   0.1 sec)
  promolecular density results
     # of electrons  =     76.009552309
     EX              =    -61.992817438
     EC              =     -2.550577459
     EX+EC           =    -64.543394897
Transforming the Hamiltonian                       ... done (   0.0 sec)
Diagonalizing the Hamiltonian                      ... done (   0.0 sec)
Back transforming the eigenvectors                 ... done (   0.0 sec)
Now organizing SCF variables                       ... done
                      ------------------
                      INITIAL GUESS DONE (   0.4 sec)
                      ------------------
--------------------
COSX GRID GENERATION
--------------------

General Integration Accuracy     IntAcc      ...  3.340
Radial Grid Type                 RadialGrid  ... Gauss-Chebyshev
Angular Grid (max. acc.)         AngularGrid ... Lebedev-50
Angular grid pruning method      GridPruning ... 3 (G Style)
Weight generation scheme         WeightScheme... Becke
Basis function cutoff            BFCut       ...    1.0000e-11
Integration weight cutoff        WCut        ...    1.0000e-14
Grids for H and He will be reduced by one unit

# of grid points (after initial pruning)     ...   9278 (   0.0 sec)
# of grid points (after weights+screening)   ...   8693 (   0.0 sec)
nearest neighbour list constructed           ...    0.0 sec
Grid point re-assignment to atoms done       ...    0.0 sec
Grid point division into batches done        ...    0.0 sec
Reduced shell lists constructed in    0.0 sec

Total number of grid points                  ...     8693
Total number of batches                      ...      145
Average number of points per batch           ...       59
Average number of grid points per atom       ...      414
Average number of shells per batch           ...    67.42 (72.50%)
Average number of basis functions per batch  ...   136.65 (70.08%)
Average number of large shells per batch     ...    50.35 (74.67%)
Average number of large basis fcns per batch ...   102.88 (75.29%)
Maximum spatial batch extension              ...   3.74,  8.32, 17.54 au
Average spatial batch extension              ...   0.41,  0.45,  0.91 au

Overlap Fitting                  UseSFitting ... on
Constructing numerical overlap ... done (      0.0 sec)
Inverting numerical overlap    ... done (      0.0 sec)
Obtaining analytic overlap     ... done (      0.0 sec)
Final contraction and storage  ... done (      0.0 sec)


General Integration Accuracy     IntAcc      ...  3.670
Radial Grid Type                 RadialGrid  ... Gauss-Chebyshev
Angular Grid (max. acc.)         AngularGrid ... Lebedev-50
Angular grid pruning method      GridPruning ... 3 (G Style)
Weight generation scheme         WeightScheme... Becke
Basis function cutoff            BFCut       ...    1.0000e-11
Integration weight cutoff        WCut        ...    1.0000e-14
Grids for H and He will be reduced by one unit

# of grid points (after initial pruning)     ...  11880 (   0.0 sec)
# of grid points (after weights+screening)   ...  11094 (   0.0 sec)
nearest neighbour list constructed           ...    0.0 sec
Grid point re-assignment to atoms done       ...    0.0 sec
Grid point division into batches done        ...    0.0 sec
Reduced shell lists constructed in    0.0 sec

Total number of grid points                  ...    11094
Total number of batches                      ...      187
Average number of points per batch           ...       59
Average number of grid points per atom       ...      528
Average number of shells per batch           ...    67.27 (72.34%)
Average number of basis functions per batch  ...   136.61 (70.05%)
Average number of large shells per batch     ...    50.15 (74.55%)
Average number of large basis fcns per batch ...   102.45 (75.00%)
Maximum spatial batch extension              ...   3.64,  5.96, 19.22 au
Average spatial batch extension              ...   0.36,  0.39,  0.82 au

Overlap Fitting                  UseSFitting ... on
Constructing numerical overlap ... done (      0.0 sec)
Inverting numerical overlap    ... done (      0.0 sec)
Obtaining analytic overlap     ... done (      0.0 sec)
Final contraction and storage  ... done (      0.0 sec)


General Integration Accuracy     IntAcc      ...  4.010
Radial Grid Type                 RadialGrid  ... Gauss-Chebyshev
Angular Grid (max. acc.)         AngularGrid ... Lebedev-110
Angular grid pruning method      GridPruning ... 3 (G Style)
Weight generation scheme         WeightScheme... Becke
Basis function cutoff            BFCut       ...    1.0000e-11
Integration weight cutoff        WCut        ...    1.0000e-14
Grids for H and He will be reduced by one unit

# of grid points (after initial pruning)     ...  21982 (   0.0 sec)
# of grid points (after weights+screening)   ...  20473 (   0.0 sec)
nearest neighbour list constructed           ...    0.0 sec
Grid point re-assignment to atoms done       ...    0.0 sec
Grid point division into batches done        ...    0.0 sec
Reduced shell lists constructed in    0.1 sec

Total number of grid points                  ...    20473
Total number of batches                      ...      328
Average number of points per batch           ...       62
Average number of grid points per atom       ...      975
Average number of shells per batch           ...    66.73 (71.75%)
Average number of basis functions per batch  ...   135.38 (69.42%)
Average number of large shells per batch     ...    49.02 (73.45%)
Average number of large basis fcns per batch ...    99.62 (73.59%)
Maximum spatial batch extension              ...   7.57,  8.22, 18.24 au
Average spatial batch extension              ...   0.34,  0.35,  0.56 au

Overlap Fitting                  UseSFitting ... on
Constructing numerical overlap ... done (      0.0 sec)
Inverting numerical overlap    ... done (      0.0 sec)
Obtaining analytic overlap     ... done (      0.0 sec)
Final contraction and storage  ... done (      0.0 sec)

Time for X-Grid setup             =    0.407 sec
--------------
SCF ITERATIONS
--------------
ITER       Energy         Delta-E        Max-DP      RMS-DP      [F,P]     Damp
               ***  Starting incremental Fock matrix formation  ***
  0   -474.0636570898   0.000000000000 0.09631144  0.00237806  0.2662517 0.7000
  1   -474.2532143810  -0.189557291174 0.06160058  0.00158636  0.1154439 0.7000
                               ***Turning on DIIS***
  2   -474.3251767050  -0.071962324011 0.08044133  0.00234859  0.0433693 0.0000
  3   -474.4353938130  -0.110217107990 0.04281803  0.00112038  0.0644800 0.0000
  4   -474.4615496343  -0.026155821305 0.00772036  0.00032206  0.0127123 0.0000
  5   -474.4632844144  -0.001734780121 0.00377848  0.00010826  0.0051243 0.0000
                      *** Initiating the SOSCF procedure ***
                           *** Shutting down DIIS ***
                      *** Re-Reading the Fockian *** 
                      *** Removing any level shift *** 
ITER      Energy       Delta-E        Grad      Rot      Max-DP    RMS-DP
  6   -474.46339266  -0.0001082501  0.000341  0.000341  0.001389  0.000039
               *** Restarting incremental Fock matrix formation ***
  7   -474.46341924  -0.0000265756  0.000130  0.000489  0.000797  0.000027
  8   -474.46341851   0.0000007319  0.000245  0.000410  0.000688  0.000013
  9   -474.46342070  -0.0000021948  0.000055  0.000128  0.000192  0.000008
 10   -474.46342071  -0.0000000047  0.000063  0.000041  0.000094  0.000003
 11   -474.46342086  -0.0000001559  0.000014  0.000039  0.000042  0.000001
 12   -474.46342086   0.0000000038  0.000018  0.000020  0.000032  0.000001
                  ***Gradient check signals convergence***
              ***Rediagonalizing the Fockian in SOSCF/NRSCF***

               *****************************************************
               *                     SUCCESS                       *
               *           SCF CONVERGED AFTER  13 CYCLES          *
               *****************************************************

Setting up the final grid:

General Integration Accuracy     IntAcc      ...  4.670
Radial Grid Type                 RadialGrid  ... Gauss-Chebyshev
Angular Grid (max. acc.)         AngularGrid ... Lebedev-302
Angular grid pruning method      GridPruning ... 3 (G Style)
Weight generation scheme         WeightScheme... Becke
Basis function cutoff            BFCut       ...    1.0000e-11
Integration weight cutoff        WCut        ...    1.0000e-14
Grids for H and He will be reduced by one unit

# of grid points (after initial pruning)     ...  99454 (   0.0 sec)
# of grid points (after weights+screening)   ...  91030 (   0.1 sec)
nearest neighbour list constructed           ...    0.0 sec
Grid point re-assignment to atoms done       ...    0.0 sec
Grid point division into batches done        ...    0.3 sec
Reduced shell lists constructed in    0.6 sec

Total number of grid points                  ...    91030
Total number of batches                      ...     1438
Average number of points per batch           ...       63
Average number of grid points per atom       ...     4335
Average number of shells per batch           ...    63.20 (67.95%)
Average number of basis functions per batch  ...   127.57 (65.42%)
Average number of large shells per batch     ...    45.61 (72.17%)
Average number of large basis fcns per batch ...    92.76 (72.71%)
Maximum spatial batch extension              ...   8.43, 10.12, 16.77 au
Average spatial batch extension              ...   0.23,  0.24,  0.29 au

Final grid set up in    0.8 sec
Final integration                            ... done (   0.4 sec)
Change in XC energy                          ...    -0.000518029
Integrated number of electrons               ...    75.999914467
Previous integrated no of electrons          ...    76.002715699
Old exchange energy                            =    -12.614957841 Eh
New exchange energy                            =    -12.614517179 Eh
Exchange energy change after final integration =      0.000440663 Eh
Total energy after final integration           =   -474.463498234 Eh
Final COS-X integration done in                =     2.908 sec

----------------
TOTAL SCF ENERGY
----------------

Total Energy       :         -474.46349823 Eh          -12910.80816 eV

Components:
Nuclear Repulsion  :          488.05322252 Eh           13280.60336 eV
Electronic Energy  :         -962.51672076 Eh          -26191.41152 eV
One Electron Energy:        -1611.47118045 Eh          -43850.36013 eV
Two Electron Energy:          648.95445969 Eh           17658.94861 eV

Virial components:
Potential Energy   :         -946.17137341 Eh          -25746.63200 eV
Kinetic Energy     :          471.70787518 Eh           12835.82384 eV
Virial Ratio       :            2.00584180


DFT components:
N(Alpha)           :       37.999957233574 electrons
N(Beta)            :       37.999957233574 electrons
N(Total)           :       75.999914467148 electrons
E(X)               :      -50.129185727031 Eh       
E(C)               :       -3.018395123695 Eh       
E(XC)              :      -53.147580850725 Eh       

---------------
SCF CONVERGENCE
---------------

  Last Energy change         ...   -8.4133e-09  Tolerance :   1.0000e-08
  Last MAX-Density change    ...    1.2575e-13  Tolerance :   1.0000e-07
  Last RMS-Density change    ...    8.0385e-16  Tolerance :   5.0000e-09
  Last Orbital Gradient      ...    2.4224e-06  Tolerance :   1.0000e-05
  Last Orbital Rotation      ...    8.2029e-06  Tolerance :   1.0000e-05

             **** THE GBW FILE WAS UPDATED (AT-v/e/frag_20_c00001.gbw) ****
             **** DENSITY FILE WAS UPDATED (AT-v/e/frag_20_c00001.scfp.tmp) ****
             **** ENERGY FILE WAS UPDATED (AT-v/e/frag_20_c00001.en.tmp) ****
----------------
ORBITAL ENERGIES
----------------

  NO   OCC          E(Eh)            E(eV) 
   0   2.0000     -19.094395      -519.5849 
   1   2.0000     -14.316275      -389.5656 
   2   2.0000     -14.312633      -389.4665 
   3   2.0000     -14.284856      -388.7107 
   4   2.0000     -10.274141      -279.5736 
   5   2.0000     -10.253939      -279.0239 
   6   2.0000     -10.206647      -277.7370 
   7   2.0000     -10.204312      -277.6734 
   8   2.0000     -10.199410      -277.5401 
   9   2.0000     -10.193351      -277.3752 
  10   2.0000      -1.024270       -27.8718 
  11   2.0000      -0.939164       -25.5560 
  12   2.0000      -0.878842       -23.9145 
  13   2.0000      -0.835984       -22.7483 
  14   2.0000      -0.779271       -21.2050 
  15   2.0000      -0.776268       -21.1233 
  16   2.0000      -0.639667       -17.4062 
  17   2.0000      -0.629619       -17.1328 
  18   2.0000      -0.559837       -15.2339 
  19   2.0000      -0.556342       -15.1388 
  20   2.0000      -0.524446       -14.2709 
  21   2.0000      -0.511071       -13.9069 
  22   2.0000      -0.488822       -13.3015 
  23   2.0000      -0.460289       -12.5251 
  24   2.0000      -0.446920       -12.1613 
  25   2.0000      -0.436644       -11.8817 
  26   2.0000      -0.421951       -11.4819 
  27   2.0000      -0.401115       -10.9149 
  28   2.0000      -0.394034       -10.7222 
  29   2.0000      -0.382652       -10.4125 
  30   2.0000      -0.376116       -10.2346 
  31   2.0000      -0.370819       -10.0905 
  32   2.0000      -0.280593        -7.6353 
  33   2.0000      -0.276115        -7.5135 
  34   2.0000      -0.270490        -7.3604 
  35   2.0000      -0.246916        -6.7189 
  36   2.0000      -0.244130        -6.6431 
  37   2.0000      -0.225164        -6.1270 
  38   0.0000      -0.039332        -1.0703 
  39   0.0000      -0.033152        -0.9021 
  40   0.0000       0.059917         1.6304 
  41   0.0000       0.067240         1.8297 
  42   0.0000       0.076323         2.0769 
  43   0.0000       0.088540         2.4093 
  44   0.0000       0.091094         2.4788 
  45   0.0000       0.107338         2.9208 
  46   0.0000       0.110971         3.0197 
  47   0.0000       0.136948         3.7266 
  48   0.0000       0.152536         4.1507 
  49   0.0000       0.173199         4.7130 
  50   0.0000       0.182161         4.9569 
  51   0.0000       0.211713         5.7610 
  52   0.0000       0.239917         6.5285 
  53   0.0000       0.266236         7.2446 
  54   0.0000       0.285193         7.7605 
  55   0.0000       0.305112         8.3025 
  56   0.0000       0.309663         8.4264 
  57   0.0000       0.339465         9.2373 
  58   0.0000       0.370197        10.0736 
  59   0.0000       0.402030        10.9398 
  60   0.0000       0.418922        11.3994 
  61   0.0000       0.439587        11.9618 
  62   0.0000       0.462134        12.5753 
  63   0.0000       0.464495        12.6396 
  64   0.0000       0.467015        12.7081 
  65   0.0000       0.482308        13.1243 
  66   0.0000       0.494123        13.4458 
  67   0.0000       0.498805        13.5732 
  68   0.0000       0.509168        13.8552 
  69   0.0000       0.528142        14.3715 
  70   0.0000       0.538580        14.6555 
  71   0.0000       0.549570        14.9546 
  72   0.0000       0.553839        15.0707 
  73   0.0000       0.570417        15.5218 
  74   0.0000       0.573620        15.6090 
  75   0.0000       0.584184        15.8965 
  76   0.0000       0.592773        16.1302 
  77   0.0000       0.602407        16.3923 
  78   0.0000       0.622940        16.9510 
  79   0.0000       0.640340        17.4245 
  80   0.0000       0.657973        17.9044 
  81   0.0000       0.664192        18.0736 
  82   0.0000       0.687645        18.7118 
  83   0.0000       0.699819        19.0430 
  84   0.0000       0.708944        19.2914 
  85   0.0000       0.740492        20.1498 
  86   0.0000       0.752828        20.4855 
  87   0.0000       0.765003        20.8168 
  88   0.0000       0.770130        20.9563 
  89   0.0000       0.799058        21.7435 
  90   0.0000       0.807883        21.9836 
  91   0.0000       0.844170        22.9710 
  92   0.0000       0.853813        23.2334 
  93   0.0000       0.874887        23.8069 
  94   0.0000       0.898041        24.4369 
  95   0.0000       0.913768        24.8649 
  96   0.0000       0.924337        25.1525 
  97   0.0000       0.941973        25.6324 
  98   0.0000       0.966439        26.2981 
  99   0.0000       0.972512        26.4634 
 100   0.0000       0.976944        26.5840 
 101   0.0000       0.986097        26.8331 
 102   0.0000       1.003880        27.3170 
 103   0.0000       1.009970        27.4827 
 104   0.0000       1.033374        28.1195 
 105   0.0000       1.035452        28.1761 
 106   0.0000       1.037666        28.2363 
 107   0.0000       1.088937        29.6315 
 108   0.0000       1.099009        29.9055 
 109   0.0000       1.110856        30.2279 
 110   0.0000       1.129654        30.7394 
 111   0.0000       1.153953        31.4007 
 112   0.0000       1.180209        32.1151 
 113   0.0000       1.200503        32.6674 
 114   0.0000       1.244293        33.8589 
 115   0.0000       1.294081        35.2137 
 116   0.0000       1.316591        35.8263 
 117   0.0000       1.333900        36.2973 
 118   0.0000       1.344120        36.5754 
 119   0.0000       1.385264        37.6949 
 120   0.0000       1.391094        37.8536 
 121   0.0000       1.421020        38.6679 
 122   0.0000       1.469134        39.9772 
 123   0.0000       1.478647        40.2360 
 124   0.0000       1.483337        40.3636 
 125   0.0000       1.489652        40.5355 
 126   0.0000       1.493156        40.6308 
 127   0.0000       1.502197        40.8769 
 128   0.0000       1.516619        41.2693 
 129   0.0000       1.538961        41.8773 
 130   0.0000       1.553725        42.2790 
 131   0.0000       1.557016        42.3686 
 132   0.0000       1.600386        43.5487 
 133   0.0000       1.630035        44.3555 
 134   0.0000       1.633188        44.4413 
 135   0.0000       1.645454        44.7751 
 136   0.0000       1.660788        45.1923 
 137   0.0000       1.680873        45.7389 
 138   0.0000       1.690455        45.9996 
 139   0.0000       1.701451        46.2988 
 140   0.0000       1.711755        46.5792 
 141   0.0000       1.724762        46.9331 
 142   0.0000       1.735821        47.2341 
 143   0.0000       1.762511        47.9604 
 144   0.0000       1.774633        48.2902 
 145   0.0000       1.809718        49.2449 
 146   0.0000       1.837458        49.9998 
 147   0.0000       1.880824        51.1798 
 148   0.0000       1.900766        51.7225 
 149   0.0000       1.908332        51.9284 
 150   0.0000       1.916183        52.1420 
 151   0.0000       1.931251        52.5520 
 152   0.0000       1.949780        53.0562 
 153   0.0000       2.001807        54.4719 
 154   0.0000       2.007001        54.6133 
 155   0.0000       2.030516        55.2531 
 156   0.0000       2.037086        55.4319 
 157   0.0000       2.081106        56.6298 
 158   0.0000       2.111009        57.4435 
 159   0.0000       2.145143        58.3723 
 160   0.0000       2.160558        58.7918 
 161   0.0000       2.168765        59.0151 
 162   0.0000       2.204548        59.9888 
 163   0.0000       2.222553        60.4787 
 164   0.0000       2.246594        61.1329 
 165   0.0000       2.272533        61.8388 
 166   0.0000       2.277516        61.9744 
 167   0.0000       2.287519        62.2466 
 168   0.0000       2.316343        63.0309 
 169   0.0000       2.337330        63.6020 
 170   0.0000       2.392826        65.1121 
 171   0.0000       2.394604        65.1605 
 172   0.0000       2.430335        66.1328 
 173   0.0000       2.434529        66.2469 
 174   0.0000       2.519577        68.5612 
 175   0.0000       2.549167        69.3664 
 176   0.0000       2.602788        70.8255 
 177   0.0000       2.615565        71.1731 
 178   0.0000       2.659467        72.3678 
 179   0.0000       2.678658        72.8900 
 180   0.0000       2.710126        73.7463 
 181   0.0000       2.733148        74.3727 
 182   0.0000       2.743478        74.6538 
 183   0.0000       2.767371        75.3040 
 184   0.0000       2.809038        76.4378 
 185   0.0000       2.920270        79.4646 
 186   0.0000       2.929738        79.7222 
 187   0.0000       2.982783        81.1657 
 188   0.0000       3.016267        82.0768 
 189   0.0000       3.110182        84.6323 
 190   0.0000       3.216619        87.5287 
 191   0.0000       3.297688        89.7347 
 192   0.0000       3.345941        91.0477 
 193   0.0000       3.490432        94.9795 
 194   0.0000       3.565268        97.0159 
-------
TIMINGS
-------

Total SCF time: 0 days 0 hours 0 min 28 sec 

Total time                  ....      28.091 sec
Sum of individual times     ....      27.989 sec  ( 99.6%)

Fock matrix formation       ....      26.103 sec  ( 92.9%)
  Split-RI-J                ....       4.145 sec  ( 15.9% of F)
  Chain of spheres X        ....      20.160 sec  ( 77.2% of F)
  COS-X 1 center corr.      ....       0.000 sec  (  0.0% of F)
  XC integration            ....       1.736 sec  (  6.6% of F)
    Basis function eval.    ....       0.608 sec  ( 35.0% of XC)
    Density eval.           ....       0.277 sec  ( 15.9% of XC)
    XC-Functional eval.     ....       0.072 sec  (  4.1% of XC)
    XC-Potential eval.      ....       0.552 sec  ( 31.8% of XC)
Diagonalization             ....       0.085 sec  (  0.3%)
Density matrix formation    ....       0.010 sec  (  0.0%)
Population analysis         ....       0.000 sec  (  0.0%)
Initial guess               ....       0.307 sec  (  1.1%)
Orbital Transformation      ....       0.000 sec  (  0.0%)
Orbital Orthonormalization  ....       0.000 sec  (  0.0%)
DIIS solution               ....       0.025 sec  (  0.1%)
SOSCF solution              ....       0.138 sec  (  0.5%)
Grid generation             ....       1.320 sec  (  4.7%)


-------------------------------------------------------------------------------
                          DFT DISPERSION CORRECTION                            
                                                                               
                              DFTD3 V3.1  Rev 1                                
                          USING Becke-Johnson damping                          
-------------------------------------------------------------------------------
The B3LYP functional is recognized
Active option DFTDOPT                   ...         4   

molecular C6(AA) [au] = 4274.799432 


            DFT-D V3
 parameters
 s6 scaling factor         :     1.0000 
 a1 scaling factor         :     0.3981 
 s8 scaling factor         :     1.9889 
 a2 scaling factor         :     4.4211 
 ad hoc parameters k1-k3   :    16.0000     1.3333    -4.0000 

 Edisp/kcal,au: -19.142713913694  -0.030505853159 
 E6   /kcal   :  -9.354113656 
 E8   /kcal   :  -9.788600258 
 % E8         :  51.134861557 

-------------------------   ----------------
Dispersion correction           -0.030505853
-------------------------   ----------------


-------------------------   --------------------
FINAL SINGLE POINT ENERGY      -474.494004087605
-------------------------   --------------------



           ************************************************************
           *        Program running with 6 parallel MPI-processes     *
           *              working on a common directory               *
           ************************************************************
------------------------------------------------------------------------------
                         ORCA SCF GRADIENT CALCULATION
------------------------------------------------------------------------------

Gradient of the Kohn-Sham DFT energy:
Kohn-Sham wavefunction type      ... RKS
Hartree-Fock exchange scaling    ...    0.200
Number of operators              ...    1
Number of atoms                  ...   21
Basis set dimensions             ...  195
Integral neglect threshold       ... 2.5e-11
Integral primitive cutoff        ... 2.5e-12

Nuclear repulsion gradient       ... done
One Electron Gradient            ... done
Pre-screening matrix             ... done
RI-J gradient                    ... done
COSX-gradient                    ... done
Exchange-correlation gradient    ... done
Dispersion correction            ... done

------------------
CARTESIAN GRADIENT
------------------

   1   C   :    0.006458869   -0.000576080    0.002179474
   2   C   :    0.006767612   -0.014661252   -0.007531567
   3   N   :   -0.007204631    0.011320408    0.002443398
   4   N   :   -0.008939865   -0.006255595    0.000077909
   5   C   :   -0.000780329    0.010817880    0.001236446
   6   N   :    0.003059266    0.005098941   -0.002134154
   7   C   :    0.003850904   -0.027998644    0.004721149
   8   O   :   -0.005903949    0.019034151   -0.002185154
   9   C   :    0.007923699   -0.003663642    0.000637685
  10   C   :   -0.002311522    0.010748646   -0.002078832
  11   H   :   -0.003870578    0.005562792    0.000280599
  12   H   :   -0.006663706    0.003715032    0.001114031
  13   H   :    0.005704355    0.002465468    0.000442015
  14   H   :    0.000682695   -0.002704384    0.002660900
  15   H   :   -0.004496031    0.000043124   -0.000447998
  16   H   :    0.004396199   -0.006122301   -0.000380601
  17   H   :    0.007931273   -0.000396999    0.000670050
  18   H   :   -0.010874302   -0.003091903    0.000246421
  19   H   :    0.000712270    0.004846281   -0.000406517
  20   H   :   -0.002861066   -0.006980271    0.000308010
  21   H   :    0.005079238   -0.000235006    0.000524885

Difference to translation invariance:
           :   -0.0013395979    0.0009666463    0.0023781486

Norm of the cartesian gradient     ...    0.0528052995
RMS gradient                       ...    0.0066528424
MAX gradient                       ...    0.0279986439

-------
TIMINGS
-------

Total SCF gradient time            ...        6.237 sec

One electron gradient       ....       0.126 sec  (  2.0%)
Prescreening matrices       ....       0.122 sec  (  2.0%)
RI-J Coulomb gradient       ....       0.984 sec  ( 15.8%)
COSX gradient               ....       2.923 sec  ( 46.9%)
XC gradient                 ....       1.578 sec  ( 25.3%)
------------------------------------------------------------------------------
                         ORCA GEOMETRY RELAXATION STEP
------------------------------------------------------------------------------

Reading the OPT-File                    .... done
Getting information on internals        .... done
Copying old internal coords+grads       .... done
Making the new internal coordinates     .... (new redundants).... done
Validating the new internal coordinates .... (new redundants).... done
Calculating the B-matrix                .... done
Calculating the G,G- and P matrices     .... done
Transforming gradient to internals      .... done
Projecting the internal gradient        .... done
Number of atoms                         ....  21
Number of internal coordinates          .... 103
Current Energy                          ....  -474.494004088 Eh
Current gradient norm                   ....     0.052805299 Eh/bohr
Maximum allowed component of the step   ....  0.300
Current trust radius                    ....  0.300
Evaluating the initial hessian          ....  (Almloef) done
Projecting the Hessian                  .... done
Forming the augmented Hessian           .... done
Diagonalizing the augmented Hessian     .... done
Last element of RFO vector              ....  0.962932403
Lowest eigenvalues of augmented Hessian:
 -0.006942820  0.012572997  0.013488861  0.015209282  0.021868475
Length of the computed step             ....  0.280126431
The final length of the internal step   ....  0.280126431
Converting the step to cartesian space:
 Initial RMS(Int)=    0.0276016774
Transforming coordinates:
 Iter   0:  RMS(Cart)=    0.0870111189 RMS(Int)=    1.3811019433
 Iter   1:  RMS(Cart)=    0.0020181720 RMS(Int)=    0.0007709834
 Iter   2:  RMS(Cart)=    0.0000614014 RMS(Int)=    0.0000207271
 Iter   3:  RMS(Cart)=    0.0000033341 RMS(Int)=    0.0000015436
 Iter   4:  RMS(Cart)=    0.0000001302 RMS(Int)=    0.0000000547
 Iter   5:  RMS(Cart)=    0.0000000066 RMS(Int)=    0.0000000037
done
Storing new coordinates                 .... done

                                .--------------------.
          ----------------------|Geometry convergence|-------------------------
          Item                value                   Tolerance       Converged
          ---------------------------------------------------------------------
          RMS gradient        0.0045538860            0.0020000000      NO
          MAX gradient        0.0190117581            0.0030000000      NO
          RMS step            0.0276016774            0.0200000000      NO
          MAX step            0.1552709340            0.0300000000      NO
          ........................................................
          Max(Bonds)      0.0822      Max(Angles)    2.73
          Max(Dihed)        2.90      Max(Improp)    0.00
          ---------------------------------------------------------------------

The optimization has not yet converged - more geometry cycles are needed


    ---------------------------------------------------------------------------
                         Redundant Internal Coordinates
                            (Angstroem and degrees)

        Definition                    Value    dE/dq     Step     New-Value
    ----------------------------------------------------------------------------
     1. B(C   1,C   0)                1.4924  0.002029 -0.0025    1.4899   
     2. B(N   2,C   1)                1.3597 -0.006609  0.0080    1.3676   
     3. B(N   3,C   1)                1.2969 -0.002646  0.0034    1.3003   
     4. B(C   4,C   0)                1.3382  0.003127 -0.0022    1.3361   
     5. B(C   6,N   5)                1.3530  0.002833  0.0006    1.3537   
     6. B(O   7,C   6)                1.2267 -0.019012  0.0115    1.2382   
     7. B(C   8,C   6)                1.4830 -0.008991  0.0106    1.4935   
     8. B(C   9,C   8)                1.3396  0.002826 -0.0020    1.3376   
     9. B(H  10,C   0)                1.0861 -0.006544  0.0093    1.0954   
    10. B(H  11,N   2)                1.0108 -0.005136  0.0062    1.0170   
    11. B(H  12,O   7)                1.8251 -0.001643  0.0208    1.8458   
    12. B(H  12,N   2)                1.0254 -0.007917  0.0097    1.0351   
    13. B(H  13,N   3)                1.0210 -0.001419  0.0018    1.0228   
    14. B(H  14,C   4)                1.0864 -0.004412  0.0063    1.0927   
    15. B(H  15,C   4)                1.0827 -0.007421  0.0104    1.0931   
    16. B(H  16,N   5)                1.0054 -0.004355  0.0052    1.0106   
    17. B(H  17,H  12)                2.2758 -0.007575  0.0737    2.3495   
    18. B(H  17,N   3)                1.7740 -0.005360  0.0822    1.8561   
    19. B(H  17,N   5)                1.0277 -0.016429  0.0215    1.0491   
    20. B(H  18,C   8)                1.0867 -0.004810  0.0069    1.0935   
    21. B(H  19,C   9)                1.0825 -0.007482  0.0105    1.0930   
    22. B(H  20,C   9)                1.0864 -0.005055  0.0072    1.0936   
    23. A(C   1,C   0,H  10)          115.18 -0.000922    0.16    115.34   
    24. A(C   1,C   0,C   4)          125.32 -0.000727    0.10    125.43   
    25. A(C   4,C   0,H  10)          119.48  0.001636   -0.24    119.24   
    26. A(N   2,C   1,N   3)          116.69 -0.008353    1.84    118.53   
    27. A(C   0,C   1,N   2)          119.28  0.017307   -2.73    116.55   
    28. A(C   0,C   1,N   3)          124.02 -0.008952    0.89    124.92   
    29. A(C   1,N   2,H  12)          113.72  0.004098    0.03    113.76   
    30. A(H  11,N   2,H  12)          110.20 -0.004957    1.18    111.38   
    31. A(C   1,N   2,H  11)          117.16  0.000869   -0.50    116.66   
    32. A(H  13,N   3,H  17)          127.52 -0.001555    0.26    127.78   
    33. A(C   1,N   3,H  17)          121.71  0.006913   -0.91    120.80   
    34. A(C   1,N   3,H  13)          110.15 -0.005445    0.77    110.92   
    35. A(C   0,C   4,H  14)          119.77 -0.002259    0.34    120.11   
    36. A(H  14,C   4,H  15)          116.43 -0.000958    0.17    116.60   
    37. A(C   0,C   4,H  15)          123.80  0.003218   -0.51    123.30   
    38. A(H  16,N   5,H  17)          116.31 -0.005980    0.70    117.01   
    39. A(C   6,N   5,H  17)          117.79 -0.000915    0.75    118.54   
    40. A(C   6,N   5,H  16)          124.70  0.006962   -1.46    123.25   
    41. A(O   7,C   6,C   8)          120.63  0.008154   -1.47    119.16   
    42. A(N   5,C   6,C   8)          117.63 -0.009445    0.83    118.46   
    43. A(N   5,C   6,O   7)          121.74  0.001291    0.65    122.38   
    44. A(C   6,O   7,H  12)          114.68  0.000105    1.07    115.74   
    45. A(C   9,C   8,H  18)          119.76  0.000158    0.00    119.77   
    46. A(C   6,C   8,H  18)          113.30  0.002341   -0.36    112.94   
    47. A(C   6,C   8,C   9)          126.94 -0.002500    0.36    127.29   
    48. A(H  19,C   9,H  20)          116.71  0.000357   -0.06    116.64   
    49. A(C   8,C   9,H  20)          119.74 -0.001875    0.29    120.04   
    50. A(C   8,C   9,H  19)          123.55  0.001518   -0.23    123.32   
    51. A(N   2,H  12,H  17)          114.96  0.001761    0.16    115.13   
    52. A(N   2,H  12,O   7)          170.54  0.000957    0.72    171.26   
    53. A(O   7,H  12,H  17)           73.58 -0.002611   -0.80     72.78   
    54. A(N   5,H  17,H  12)          108.87  0.001839   -1.42    107.45   
    55. A(N   3,H  17,H  12)           70.88 -0.004252   -1.31     69.56   
    56. D(N   2,C   1,C   0,H  10)      1.36  0.000979   -1.24      0.12   
    57. D(N   3,C   1,C   0,C   4)      0.09 -0.001175    1.81      1.90   
    58. D(N   3,C   1,C   0,H  10)   -178.59 -0.000533    0.71   -177.88   
    59. D(N   2,C   1,C   0,C   4)   -179.96  0.000337   -0.14   -180.10   
    60. D(H  12,N   2,C   1,N   3)    -16.31  0.001304   -1.31    -17.62   
    61. D(H  12,N   2,C   1,C   0)    163.74 -0.000098    0.50    164.23   
    62. D(H  11,N   2,C   1,N   3)   -146.79  0.003629   -2.63   -149.42   
    63. D(H  11,N   2,C   1,C   0)     33.25  0.002228   -0.82     32.43   
    64. D(H  17,N   3,C   1,C   0)   -170.76  0.000470   -0.00   -170.77   
    65. D(H  17,N   3,C   1,N   2)      9.28 -0.001017    1.90     11.19   
    66. D(H  13,N   3,C   1,C   0)      0.87 -0.000370    0.82      1.69   
    67. D(H  13,N   3,C   1,N   2)   -179.09 -0.001858    2.73   -176.36   
    68. D(H  14,C   4,C   0,H  10)     -0.65 -0.000057    0.22     -0.43   
    69. D(H  15,C   4,C   0,C   1)      0.88  0.000335   -0.56      0.32   
    70. D(H  14,C   4,C   0,C   1)   -179.28  0.000643   -0.93   -180.20   
    71. D(H  15,C   4,C   0,H  10)    179.50 -0.000365    0.59    180.10   
    72. D(H  16,N   5,N   3,H  13)     28.35  0.000523   -2.06     26.29   
    73. D(H  16,N   5,N   3,C   1)   -160.97 -0.000100   -1.00   -161.97   
    74. D(C   6,N   5,N   3,H  13)   -164.33  0.000717   -2.90   -167.23   
    75. D(C   6,N   5,N   3,C   1)      6.35  0.000094   -1.84      4.51   
    76. D(C   8,C   6,N   5,H  17)   -175.44  0.000583   -0.61   -176.05   
    77. D(C   8,C   6,N   5,H  16)     -8.42  0.000111   -0.51     -8.93   
    78. D(O   7,C   6,N   5,H  17)      4.70  0.000233   -0.26      4.44   
    79. D(O   7,C   6,N   5,H  16)    171.72 -0.000239   -0.16    171.56   
    80. D(H  12,O   7,C   6,C   8)    161.62 -0.001095    0.74    162.36   
    81. D(H  12,O   7,C   6,N   5)    -18.53 -0.000760    0.39    -18.14   
    82. D(H  18,C   8,C   6,O   7)     -0.10  0.000594   -1.48     -1.58   
    83. D(H  18,C   8,C   6,N   5)   -179.95  0.000258   -1.14   -181.09   
    84. D(C   9,C   8,C   6,O   7)   -179.94  0.000786   -1.79   -181.73   
    85. D(C   9,C   8,C   6,N   5)      0.21  0.000450   -1.45     -1.25   
    86. D(H  19,C   9,C   8,C   6)     -0.35  0.000153   -0.14     -0.49   
    87. D(H  20,C   9,C   8,H  18)      0.11  0.000372   -0.50     -0.38   
    88. D(H  20,C   9,C   8,C   6)    179.94  0.000172   -0.16    179.78   
    89. D(H  19,C   9,C   8,H  18)    179.82  0.000354   -0.47    179.34   
    90. D(H  17,H  12,O   7,C   6)     15.30  0.000523   -0.52     14.79   
    91. D(N   2,H  12,O   7,C   6)    170.57  0.000735   -0.40    170.17   
    92. D(H  17,H  12,N   2,H  11)    148.27  0.000687    0.50    148.77   
    93. D(H  17,H  12,N   2,C   1)     14.41  0.000391    0.05     14.46   
    94. D(O   7,H  12,N   2,H  11)     -5.45  0.000484    0.29     -5.16   
    95. D(O   7,H  12,N   2,C   1)   -139.31  0.000189   -0.16   -139.47   
    96. D(N   3,H  17,H  12,O   7)    167.46  0.000702    1.01    168.47   
    97. D(N   5,H  17,H  12,O   7)    -13.82 -0.000544    0.68    -13.14   
    98. D(N   5,H  17,H  12,N   2)    170.53 -0.000954    0.34    170.87   
    99. D(H  12,H  17,N   5,H  16)   -159.60 -0.000352   -0.20   -159.80   
   100. D(H  12,H  17,N   5,C   6)      8.51  0.000854   -0.39      8.12   
   101. D(N   3,H  17,H  12,N   2)     -8.19  0.000292    0.66     -7.53   
   102. D(H  12,H  17,N   3,H  13)   -171.69  0.001008   -2.18   -173.87   
   103. D(H  12,H  17,N   3,C   1)     -1.61 -0.000132   -1.18     -2.80   
    ----------------------------------------------------------------------------

         *************************************************************
         *                GEOMETRY OPTIMIZATION CYCLE   2            *
         *************************************************************
---------------------------------
CARTESIAN COORDINATES (ANGSTROEM)
---------------------------------
  C      3.150044   -0.580922   -0.011920
  C      1.667308   -0.492548   -0.128482
  N      0.998419   -1.668943   -0.325909
  N      0.982519    0.612240   -0.092814
  C      3.974696    0.452590    0.180122
  N     -1.917133    0.507684    0.031281
  C     -2.479295   -0.718499    0.144001
  O     -1.804921   -1.745213    0.298832
  C     -3.967880   -0.826761    0.089562
  C     -4.848942    0.171500   -0.038798
  H      3.567812   -1.589824   -0.098501
  H      1.399843   -2.499684    0.102006
  H     -0.018693   -1.605409   -0.144793
  H      1.600473    1.422019   -0.000791
  H      5.052092    0.287299    0.256310
  H      3.629965    1.485348    0.277138
  H     -2.439779    1.336146   -0.217314
  H     -0.870705    0.579011    0.006148
  H     -4.323475   -1.857718    0.170252
  H     -4.558659    1.222644   -0.113520
  H     -5.920490   -0.044661   -0.069110

----------------------------
CARTESIAN COORDINATES (A.U.)
----------------------------
  NO LB      ZA    FRAG     MASS         X           Y           Z
   0 C     6.0000    0    12.011    5.952721   -1.097783   -0.022526
   1 C     6.0000    0    12.011    3.150755   -0.930780   -0.242796
   2 N     7.0000    0    14.007    1.886738   -3.153845   -0.615879
   3 N     7.0000    0    14.007    1.856692    1.156965   -0.175394
   4 C     6.0000    0    12.011    7.511087    0.855272    0.340382
   5 N     7.0000    0    14.007   -3.622857    0.959384    0.059113
   6 C     6.0000    0    12.011   -4.685189   -1.357767    0.272122
   7 O     8.0000    0    15.999   -3.410806   -3.297975    0.564710
   8 C     6.0000    0    12.011   -7.498207   -1.562351    0.169248
   9 C     6.0000    0    12.011   -9.163173    0.324087   -0.073317
  10 H     1.0000    0     1.008    6.742188   -3.004332   -0.186141
  11 H     1.0000    0     1.008    2.645320   -4.723718    0.192764
  12 H     1.0000    0     1.008   -0.035324   -3.033783   -0.273618
  13 H     1.0000    0     1.008    3.024456    2.687226   -0.001495
  14 H     1.0000    0     1.008    9.547071    0.542917    0.484356
  15 H     1.0000    0     1.008    6.859640    2.806901    0.523715
  16 H     1.0000    0     1.008   -4.610515    2.524950   -0.410663
  17 H     1.0000    0     1.008   -1.645394    1.094171    0.011619
  18 H     1.0000    0     1.008   -8.170183   -3.510578    0.321730
  19 H     1.0000    0     1.008   -8.614617    2.310462   -0.214522
  20 H     1.0000    0     1.008  -11.188104   -0.084397   -0.130599

--------------------------------
INTERNAL COORDINATES (ANGSTROEM)
--------------------------------
 C      0   0   0     0.000000000000     0.00000000     0.00000000
 C      1   0   0     1.489933949789     0.00000000     0.00000000
 N      2   1   0     1.367587917880   116.55203165     0.00000000
 N      2   1   3     1.300293230052   124.91410170   181.97852660
 C      1   2   3     1.336068373683   125.42265615   179.91047901
 N      4   2   1     2.904189281213   119.76228581   188.50281765
 C      6   4   2     1.353609297181   116.79681429     4.52685963
 O      7   6   4     1.238101251737   122.37124300     5.82054135
 C      7   6   4     1.493508999641   118.46132668   185.31968542
 C      9   7   6     1.337635833352   127.29366276   358.75377017
 H      1   2   3     1.095403813356   115.33987831     0.12822674
 H      3   2   1     1.017046392806   116.66918219    32.41797126
 H      3   2   1     1.035063367668   113.73814160   164.20109360
 H      4   2   1     1.022779487889   110.91463985     1.65418049
 H      5   1   2     1.092661291155   120.10621030   179.79803725
 H      5   1   2     1.093087075619   123.29538316     0.32146299
 H      6   4   2     1.010597502078   118.44620023   198.06023663
 H      6   4   2     1.049157377346     2.12583742   150.02625313
 H      9   7   6     1.093540561344   112.93925785   178.90863320
 H     10   9   7     1.093047201412   123.31986889   359.50831535
 H     10   9   7     1.093552959172   120.03702389   179.78112986

---------------------------
INTERNAL COORDINATES (A.U.)
---------------------------
 C      0   0   0     0.000000000000     0.00000000     0.00000000
 C      1   0   0     2.815567122732     0.00000000     0.00000000
 N      2   1   0     2.584366628853   116.55203165     0.00000000
 N      2   1   3     2.457198098591   124.91410170   181.97852660
 C      1   2   3     2.524803322454   125.42265615   179.91047901
 N      4   2   1     5.488122382562   119.76228581   188.50281765
 C      6   4   2     2.557950864001   116.79681429     4.52685963
 O      7   6   4     2.339672291849   122.37124300     5.82054135
 C      7   6   4     2.822322987869   118.46132668   185.31968542
 C      9   7   6     2.527765391954   127.29366276   358.75377017
 H      1   2   3     2.070013213296   115.33987831     0.12822674
 H      3   2   1     1.921939147895   116.66918219    32.41797126
 H      3   2   1     1.955986296147   113.73814160   164.20109360
 H      4   2   1     1.932773127503   110.91463985     1.65418049
 H      5   1   2     2.064830597420   120.10621030   179.79803725
 H      5   1   2     2.065635213449   123.29538316     0.32146299
 H      6   4   2     1.909752510551   118.44620023   198.06023663
 H      6   4   2     1.982620114568     2.12583742   150.02625313
 H      9   7   6     2.066492177274   112.93925785   178.90863320
 H     10   9   7     2.065559862118   123.31986889   359.50831535
 H     10   9   7     2.066515605774   120.03702389   179.78112986



           ************************************************************
           *        Program running with 6 parallel MPI-processes     *
           *              working on a common directory               *
           ************************************************************
 One Electron integrals                  ... done
 Pre-screening matrix                    ... done


           ************************************************************
           *        Program running with 6 parallel MPI-processes     *
           *              working on a common directory               *
           ************************************************************

Diagonalization of the overlap matrix:
Smallest eigenvalue                        ... 1.998e-03
Time for diagonalization                   ...    0.011 sec
Threshold for overlap eigenvalues          ... 1.000e-08
Number of eigenvalues below threshold      ... 0
Time for construction of square roots      ...    0.005 sec
Total time needed                          ...    0.016 sec

-------------------
DFT GRID GENERATION
-------------------

General Integration Accuracy     IntAcc      ...  4.340
Radial Grid Type                 RadialGrid  ... Gauss-Chebyshev
Angular Grid (max. acc.)         AngularGrid ... Lebedev-110
Angular grid pruning method      GridPruning ... 3 (G Style)
Weight generation scheme         WeightScheme... Becke
Basis function cutoff            BFCut       ...    1.0000e-11
Integration weight cutoff        WCut        ...    1.0000e-14
Grids for H and He will be reduced by one unit

# of grid points (after initial pruning)     ...  25492 (   0.0 sec)
# of grid points (after weights+screening)   ...  23701 (   0.0 sec)
nearest neighbour list constructed           ...    0.0 sec
Grid point re-assignment to atoms done       ...    0.0 sec
Grid point division into batches done        ...    0.0 sec
Reduced shell lists constructed in    0.1 sec

Total number of grid points                  ...    23701
Total number of batches                      ...      380
Average number of points per batch           ...       62
Average number of grid points per atom       ...     1129
Average number of shells per batch           ...    65.46 (70.39%)
Average number of basis functions per batch  ...   132.42 (67.91%)
Average number of large shells per batch     ...    48.31 (73.80%)
Average number of large basis fcns per batch ...    98.65 (74.50%)
Maximum spatial batch extension              ...   8.43,  7.84, 19.12 au
Average spatial batch extension              ...   0.32,  0.33,  0.52 au

Time for grid setup =    0.138 sec

--------------------
COSX GRID GENERATION
--------------------

General Integration Accuracy     IntAcc      ...  3.340
Radial Grid Type                 RadialGrid  ... Gauss-Chebyshev
[...]
Grid point division into batches done        ...    0.0 sec
Reduced shell lists constructed in    0.1 sec

Total number of grid points                  ...    20475
Total number of batches                      ...      329
Average number of points per batch           ...       62
Average number of grid points per atom       ...      975
Average number of shells per batch           ...    66.46 (71.47%)
Average number of basis functions per batch  ...   134.79 (69.12%)
Average number of large shells per batch     ...    49.34 (74.23%)
Average number of large basis fcns per batch ...   100.55 (74.60%)
Maximum spatial batch extension              ...   5.15,  9.70, 19.60 au
Average spatial batch extension              ...   0.32,  0.34,  0.55 au

Overlap Fitting                  UseSFitting ... on
Constructing numerical overlap ... done (      0.0 sec)
Inverting numerical overlap    ... done (      0.0 sec)
Obtaining analytic overlap     ... done (      0.0 sec)
Final contraction and storage  ... done (      0.0 sec)

Time for X-Grid setup             =    0.444 sec
--------------
SCF ITERATIONS
--------------
ITER       Energy         Delta-E        Max-DP      RMS-DP      [F,P]     Damp
               ***  Starting incremental Fock matrix formation  ***
                      *** Initiating the SOSCF procedure ***
                      *** Re-Reading the Fockian *** 
                      *** Removing any level shift *** 
ITER      Energy       Delta-E        Grad      Rot      Max-DP    RMS-DP
  0   -474.47037960 -474.4703796011  0.000753  0.000753  0.002531  0.000082
               *** Restarting incremental Fock matrix formation ***
  1   -474.47048754  -0.0001079395  0.000370  0.001016  0.001149  0.000039
  2   -474.47050173  -0.0000141898  0.000144  0.000729  0.000966  0.000022
  3   -474.47050023   0.0000015032  0.000279  0.000530  0.000757  0.000014
  4   -474.47050290  -0.0000026732  0.000038  0.000095  0.000218  0.000005
  5   -474.47050281   0.0000000951  0.000046  0.000072  0.000163  0.000003
  6   -474.47050299  -0.0000001864  0.000007  0.000023  0.000039  0.000001
  7   -474.47050298   0.0000000137  0.000010  0.000015  0.000026  0.000001
                  ***Gradient check signals convergence***
              ***Rediagonalizing the Fockian in SOSCF/NRSCF***

               *****************************************************
               *                     SUCCESS                       *
               *           SCF CONVERGED AFTER   8 CYCLES          *
               *****************************************************

Setting up the final grid:

General Integration Accuracy     IntAcc      ...  4.670
Radial Grid Type                 RadialGrid  ... Gauss-Chebyshev
Angular Grid (max. acc.)         AngularGrid ... Lebedev-302
Angular grid pruning method      GridPruning ... 3 (G Style)
Weight generation scheme         WeightScheme... Becke
Basis function cutoff            BFCut       ...    1.0000e-11
Integration weight cutoff        WCut        ...    1.0000e-14
Grids for H and He will be reduced by one unit

# of grid points (after initial pruning)     ...  99454 (   0.0 sec)
# of grid points (after weights+screening)   ...  91106 (   0.1 sec)
nearest neighbour list constructed           ...    0.0 sec
Grid point re-assignment to atoms done       ...    0.0 sec
Grid point division into batches done        ...    0.4 sec
Reduced shell lists constructed in    0.6 sec

Total number of grid points                  ...    91106
Total number of batches                      ...     1436
Average number of points per batch           ...       63
Average number of grid points per atom       ...     4338
Average number of shells per batch           ...    64.20 (69.03%)
Average number of basis functions per batch  ...   129.72 (66.52%)
Average number of large shells per batch     ...    46.29 (72.10%)
Average number of large basis fcns per batch ...    94.48 (72.84%)
Maximum spatial batch extension              ...   5.45, 11.81, 15.29 au
Average spatial batch extension              ...   0.22,  0.22,  0.26 au

Final grid set up in    0.8 sec
Final integration                            ... done (   0.4 sec)
Change in XC energy                          ...    -0.000553824
Integrated number of electrons               ...    75.999938536
Previous integrated no of electrons          ...    76.000572734
Old exchange energy                            =    -12.603472618 Eh
New exchange energy                            =    -12.603040408 Eh
Exchange energy change after final integration =      0.000432210 Eh
Total energy after final integration           =   -474.470624606 Eh
Final COS-X integration done in                =     2.821 sec

----------------
TOTAL SCF ENERGY
----------------

Total Energy       :         -474.47062461 Eh          -12911.00208 eV

Components:
Nuclear Repulsion  :          485.21245585 Eh           13203.30217 eV
Electronic Energy  :         -959.68308045 Eh          -26114.30424 eV
One Electron Energy:        -1605.86697653 Eh          -43697.86199 eV
Two Electron Energy:          646.18389608 Eh           17583.55774 eV

Virial components:
Potential Energy   :         -945.95092292 Eh          -25740.63324 eV
Kinetic Energy     :          471.48029832 Eh           12829.63116 eV
Virial Ratio       :            2.00634242


DFT components:
N(Alpha)           :       37.999969268095 electrons
N(Beta)            :       37.999969268095 electrons
N(Total)           :       75.999938536190 electrons
E(X)               :      -50.088259251932 Eh       
E(C)               :       -3.015530433544 Eh       
E(XC)              :      -53.103789685476 Eh       

---------------
SCF CONVERGENCE
---------------

  Last Energy change         ...   -1.4128e-08  Tolerance :   1.0000e-08
  Last MAX-Density change    ...    5.5115e-14  Tolerance :   1.0000e-07
  Last RMS-Density change    ...    4.4983e-16  Tolerance :   5.0000e-09
  Last Orbital Gradient      ...    2.0687e-06  Tolerance :   1.0000e-05
  Last Orbital Rotation      ...    5.0305e-06  Tolerance :   1.0000e-05

             **** THE GBW FILE WAS UPDATED (AT-v/e/frag_20_c00001.gbw) ****
             **** DENSITY FILE WAS UPDATED (AT-v/e/frag_20_c00001.scfp.tmp) ****
             **** ENERGY FILE WAS UPDATED (AT-v/e/frag_20_c00001.en.tmp) ****
----------------
ORBITAL ENERGIES
----------------

  NO   OCC          E(Eh)            E(eV) 
   0   2.0000     -19.095454      -519.6137 
   1   2.0000     -14.321865      -389.7178 
   2   2.0000     -14.319208      -389.6455 
   3   2.0000     -14.286805      -388.7637 
   4   2.0000     -10.276893      -279.6485 
   5   2.0000     -10.254430      -279.0372 
   6   2.0000     -10.203763      -277.6585 
   7   2.0000     -10.201927      -277.6086 
   8   2.0000     -10.199586      -277.5448 
   9   2.0000     -10.194859      -277.4162 
  10   2.0000      -1.017711       -27.6933 
  11   2.0000      -0.934250       -25.4222 
  12   2.0000      -0.883543       -24.0424 
  13   2.0000      -0.837270       -22.7833 
  14   2.0000      -0.777269       -21.1506 
  15   2.0000      -0.775181       -21.0938 
  16   2.0000      -0.634984       -17.2788 
  17   2.0000      -0.625088       -17.0095 
  18   2.0000      -0.556962       -15.1557 
  19   2.0000      -0.553801       -15.0697 
  20   2.0000      -0.522608       -14.2209 
  21   2.0000      -0.510697       -13.8968 
  22   2.0000      -0.488804       -13.3010 
  23   2.0000      -0.460400       -12.5281 
  24   2.0000      -0.450485       -12.2583 
  25   2.0000      -0.440377       -11.9833 
  26   2.0000      -0.417697       -11.3661 
  27   2.0000      -0.396571       -10.7912 
  28   2.0000      -0.394548       -10.7362 
  29   2.0000      -0.380486       -10.3535 
  30   2.0000      -0.373879       -10.1738 
  31   2.0000      -0.367553       -10.0016 
  32   2.0000      -0.278246        -7.5714 
  33   2.0000      -0.277390        -7.5482 
  34   2.0000      -0.269558        -7.3350 
  35   2.0000      -0.250951        -6.8287 
  36   2.0000      -0.243121        -6.6157 
  37   2.0000      -0.226756        -6.1704 
  38   0.0000      -0.033477        -0.9110 
  39   0.0000      -0.030248        -0.8231 
  40   0.0000       0.061961         1.6860 
  41   0.0000       0.068979         1.8770 
  42   0.0000       0.078210         2.1282 
  43   0.0000       0.081740         2.2243 
  44   0.0000       0.089013         2.4222 
  45   0.0000       0.103491         2.8161 
  46   0.0000       0.112218         3.0536 
  47   0.0000       0.131920         3.5897 
  48   0.0000       0.151385         4.1194 
  49   0.0000       0.165188         4.4950 
  50   0.0000       0.169851         4.6219 
  51   0.0000       0.211508         5.7554 
  52   0.0000       0.224616         6.1121 
  53   0.0000       0.266152         7.2424 
  54   0.0000       0.279680         7.6105 
  55   0.0000       0.305695         8.3184 
  56   0.0000       0.310508         8.4494 
  57   0.0000       0.333035         9.0623 
  58   0.0000       0.365837         9.9549 
  59   0.0000       0.388110        10.5610 
  60   0.0000       0.402902        10.9635 
  61   0.0000       0.436585        11.8801 
  62   0.0000       0.456866        12.4319 
  63   0.0000       0.465268        12.6606 
  64   0.0000       0.473266        12.8782 
  65   0.0000       0.475475        12.9383 
  66   0.0000       0.483417        13.1544 
  67   0.0000       0.499244        13.5851 
  68   0.0000       0.510907        13.9025 
  69   0.0000       0.525649        14.3036 
  70   0.0000       0.538051        14.6411 
  71   0.0000       0.547861        14.9081 
  72   0.0000       0.554535        15.0897 
  73   0.0000       0.558998        15.2111 
  74   0.0000       0.569704        15.5024 
  75   0.0000       0.576357        15.6835 
  76   0.0000       0.590440        16.0667 
  77   0.0000       0.602953        16.4072 
  78   0.0000       0.617592        16.8055 
  79   0.0000       0.639320        17.3968 
  80   0.0000       0.654091        17.7987 
  81   0.0000       0.660869        17.9832 
  82   0.0000       0.686781        18.6883 
  83   0.0000       0.700734        19.0679 
  84   0.0000       0.709839        19.3157 
  85   0.0000       0.727782        19.8040 
  86   0.0000       0.746623        20.3167 
  87   0.0000       0.747783        20.3482 
  88   0.0000       0.756176        20.5766 
  89   0.0000       0.786781        21.4094 
  90   0.0000       0.799999        21.7691 
  91   0.0000       0.815839        22.2001 
  92   0.0000       0.857146        23.3241 
  93   0.0000       0.859876        23.3984 
  94   0.0000       0.880143        23.9499 
  95   0.0000       0.915498        24.9120 
  96   0.0000       0.928293        25.2601 
  97   0.0000       0.948499        25.8100 
  98   0.0000       0.963767        26.2254 
  99   0.0000       0.971724        26.4420 
 100   0.0000       0.981581        26.7102 
 101   0.0000       0.986883        26.8545 
 102   0.0000       0.997600        27.1461 
 103   0.0000       1.017333        27.6830 
 104   0.0000       1.026217        27.9248 
 105   0.0000       1.043320        28.3902 
 106   0.0000       1.062616        28.9152 
 107   0.0000       1.083021        29.4705 
 108   0.0000       1.090576        29.6761 
 109   0.0000       1.114015        30.3139 
 110   0.0000       1.141178        31.0530 
 111   0.0000       1.163715        31.6663 
 112   0.0000       1.173102        31.9217 
 113   0.0000       1.195433        32.5294 
 114   0.0000       1.219536        33.1853 
 115   0.0000       1.295264        35.2459 
 116   0.0000       1.305976        35.5374 
 117   0.0000       1.331739        36.2385 
 118   0.0000       1.339467        36.4487 
 119   0.0000       1.372687        37.3527 
 120   0.0000       1.383124        37.6367 
 121   0.0000       1.403909        38.2023 
 122   0.0000       1.464227        39.8436 
 123   0.0000       1.466610        39.9085 
 124   0.0000       1.478865        40.2420 
 125   0.0000       1.491996        40.5993 
 126   0.0000       1.494304        40.6621 
 127   0.0000       1.508614        41.0515 
 128   0.0000       1.518550        41.3218 
 129   0.0000       1.542877        41.9838 
 130   0.0000       1.552063        42.2338 
 131   0.0000       1.565353        42.5954 
 132   0.0000       1.589145        43.2428 
 133   0.0000       1.611180        43.8424 
 134   0.0000       1.631417        44.3931 
 135   0.0000       1.640714        44.6461 
 136   0.0000       1.650474        44.9117 
 137   0.0000       1.673604        45.5411 
 138   0.0000       1.679739        45.7080 
 139   0.0000       1.688507        45.9466 
 140   0.0000       1.705545        46.4102 
 141   0.0000       1.712494        46.5993 
 142   0.0000       1.724462        46.9250 
 143   0.0000       1.756913        47.8080 
 144   0.0000       1.785601        48.5887 
 145   0.0000       1.808203        49.2037 
 146   0.0000       1.828892        49.7667 
 147   0.0000       1.871323        50.9213 
 148   0.0000       1.886220        51.3267 
 149   0.0000       1.901081        51.7310 
 150   0.0000       1.910108        51.9767 
 151   0.0000       1.934543        52.6416 
 152   0.0000       1.953039        53.1449 
 153   0.0000       1.979283        53.8590 
 154   0.0000       2.001867        54.4736 
 155   0.0000       2.029509        55.2258 
 156   0.0000       2.036980        55.4290 
 157   0.0000       2.083315        56.6899 
 158   0.0000       2.102338        57.2075 
 159   0.0000       2.139652        58.2229 
 160   0.0000       2.151194        58.5370 
 161   0.0000       2.160875        58.8004 
 162   0.0000       2.188489        59.5518 
 163   0.0000       2.209161        60.1143 
 164   0.0000       2.245661        61.1075 
 165   0.0000       2.250465        61.2383 
 166   0.0000       2.263291        61.5873 
 167   0.0000       2.284646        62.1684 
 168   0.0000       2.306249        62.7562 
 169   0.0000       2.335058        63.5401 
 170   0.0000       2.362144        64.2772 
 171   0.0000       2.405677        65.4618 
 172   0.0000       2.422926        65.9312 
 173   0.0000       2.426815        66.0370 
 174   0.0000       2.507047        68.2202 
 175   0.0000       2.535504        68.9946 
 176   0.0000       2.584118        70.3174 
 177   0.0000       2.591558        70.5199 
 178   0.0000       2.633086        71.6499 
 179   0.0000       2.649500        72.0966 
 180   0.0000       2.685211        73.0683 
 181   0.0000       2.706737        73.6540 
 182   0.0000       2.733013        74.3691 
 183   0.0000       2.754728        74.9600 
 184   0.0000       2.798964        76.1637 
 185   0.0000       2.909966        79.1842 
 186   0.0000       2.925638        79.6107 
 187   0.0000       2.959346        80.5279 
 188   0.0000       2.994729        81.4907 
 189   0.0000       3.099546        84.3429 
 190   0.0000       3.192765        86.8796 
 191   0.0000       3.277078        89.1738 
 192   0.0000       3.320822        90.3642 
 193   0.0000       3.455543        94.0301 
 194   0.0000       3.539072        96.3030 
-------
TIMINGS
-------

Total SCF time: 0 days 0 hours 0 min 19 sec 

Total time                  ....      19.591 sec
Sum of individual times     ....      19.501 sec  ( 99.5%)

Fock matrix formation       ....      17.940 sec  ( 91.6%)
  Split-RI-J                ....       2.718 sec  ( 15.1% of F)
  Chain of spheres X        ....      13.993 sec  ( 78.0% of F)
  COS-X 1 center corr.      ....       0.000 sec  (  0.0% of F)
  XC integration            ....       1.191 sec  (  6.6% of F)
    Basis function eval.    ....       0.437 sec  ( 36.7% of XC)
    Density eval.           ....       0.196 sec  ( 16.5% of XC)
    XC-Functional eval.     ....       0.053 sec  (  4.4% of XC)
    XC-Potential eval.      ....       0.367 sec  ( 30.8% of XC)
Diagonalization             ....       0.012 sec  (  0.1%)
Density matrix formation    ....       0.019 sec  (  0.1%)
Population analysis         ....       0.000 sec  (  0.0%)
Initial guess               ....       0.012 sec  (  0.1%)
Orbital Transformation      ....       0.000 sec  (  0.0%)
Orbital Orthonormalization  ....       0.008 sec  (  0.0%)
DIIS solution               ....       0.003 sec  (  0.0%)
SOSCF solution              ....       0.166 sec  (  0.8%)
Grid generation             ....       1.351 sec  (  6.9%)


-------------------------------------------------------------------------------
                          DFT DISPERSION CORRECTION                            
                                                                               
                              DFTD3 V3.1  Rev 1                                
                          USING Becke-Johnson damping                          
-------------------------------------------------------------------------------
The B3LYP functional is recognized
Active option DFTDOPT                   ...         4   

molecular C6(AA) [au] = 4276.115432 


            DFT-D V3
 parameters
 s6 scaling factor         :     1.0000 
 a1 scaling factor         :     0.3981 
 s8 scaling factor         :     1.9889 
 a2 scaling factor         :     4.4211 
 ad hoc parameters k1-k3   :    16.0000     1.3333    -4.0000 

 Edisp/kcal,au: -18.956762054302  -0.030209520040 
 E6   /kcal   :  -9.260966961 
 E8   /kcal   :  -9.695795094 
 % E8         :  51.146894527 

-------------------------   ----------------
Dispersion correction           -0.030209520
-------------------------   ----------------


-------------------------   --------------------
FINAL SINGLE POINT ENERGY      -474.500834126540
-------------------------   --------------------

                                *** OPTIMIZATION RUN DONE ***

                            ***************************************
                            *     ORCA property calculations      *
                            ***************************************

                                    ---------------------
                                    Active property flags
                                    ---------------------
   (+) Dipole Moment


------------------------------------------------------------------------------
                       ORCA ELECTRIC PROPERTIES CALCULATION
------------------------------------------------------------------------------

Dipole Moment Calculation                       ... on
Quadrupole Moment Calculation                   ... off
Polarizability Calculation                      ... off
GBWName                                         ... AT-v/e/frag_20_c00001.gbw
Electron density file                           ... AT-v/e/frag_20_c00001.scfp.tmp
The origin for moment calculation is the CENTER OF MASS  = (-0.818572, -0.811361 -0.004511)

-------------
DIPOLE MOMENT
-------------
                                X             Y             Z
Electronic contribution:     -1.40459      -2.55365      -0.30351
Nuclear contribution   :      1.77479       3.20587       0.34859
                        -----------------------------------------
Total Dipole Moment    :      0.37020       0.65222       0.04507
                        -----------------------------------------
Magnitude (a.u.)       :      0.75131
Magnitude (Debye)      :      1.90967


Timings for individual modules:

Sum of individual times         ...      246.642 sec (=   4.111 min)
GTO integral calculation        ...        7.061 sec (=   0.118 min)   2.9 %
SCF iterations                  ...      191.595 sec (=   3.193 min)  77.7 %
SCF Gradient evaluation         ...       46.967 sec (=   0.783 min)  19.0 %
Geometry relaxation             ...        1.018 sec (=   0.017 min)   0.4 %
                             ****ORCA TERMINATED NORMALLY****
TOTAL RUN TIME: 0 days 0 hours 4 minutes 9 seconds 50 msec
