
                                 *****************
                                 * O   R   C   A *
                                 *****************

           --- An Ab Initio, DFT and Semiempirical electronic structure package ---

                  #######################################################
                  #                        -***-                        #
                  #  Department of molecular theory and spectroscopy    #
                  #              Directorship: Frank Neese              #
                  # Max Planck Institute for Chemical Energy Conversion #
                  #                  D-45470 Muelheim/Ruhr              #
                  #                       Germany                       #
                  #                                                     #
                  #                  All rights reserved                #
                  #                        -***-                        #
                  #######################################################


                         Program Version 4.0.1.2 - RELEASE -


 With contributions from (in alphabetic order):
   Daniel Aravena         : Magnetic Properties
   Michael Atanasov       : Ab Initio Ligand Field Theory
   Ute Becker             : Parallelization
   Martin Brehm           : Molecular dynamics
   Dmytro Bykov           : SCF Hessian
   Vijay G. Chilkuri      : MRCI spin determinant printing
   Dipayan Datta          : RHF DLPNO-CCSD density
   Achintya Kumar Dutta   : EOM-CC, STEOM-CC
   Dmitry Ganyushin       : Spin-Orbit,Spin-Spin,Magnetic field MRCI
   Yang Guo               : DLPNO-NEVPT2, CIM, IAO-localization
   Andreas Hansen         : Spin unrestricted coupled pair/coupled cluster methods
   Lee Huntington         : MR-EOM, pCC
   Robert Izsak           : Overlap fitted RIJCOSX, COSX-SCS-MP3, EOM
   Christian Kollmar      : KDIIS, OOCD, Brueckner-CCSD(T), CCSD density
   Simone Kossmann        : Meta GGA functionals, TD-DFT gradient, OOMP2, MP2 Hessian
   Martin Krupicka        : AUTO-CI
   Dagmar Lenk            : GEPOL surface
   Dimitrios Liakos       : Extrapolation schemes; parallel MDCI
   Dimitrios Manganas     : ROCIS; embedding schemes
   Dimitrios Pantazis     : SARC Basis sets
   Taras Petrenko         : DFT Hessian,TD-DFT gradient, ASA, ECA, R-Raman, ABS, FL, XAS/XES, NRVS
   Peter Pinski           : DLPNO-MP2
   Christoph Reimann      : Effective Core Potentials
   Marius Retegan         : Local ZFS, SOC
   Christoph Riplinger    : Optimizer, TS searches, QM/MM, DLPNO-CCSD(T), (RO)-DLPNO pert. Triples
   Tobias Risthaus        : Range-separated hybrids, TD-DFT gradient, RPA, STAB
   Michael Roemelt        : Restricted open shell CIS
   Masaaki Saitow         : Open-shell DLPNO
   Barbara Sandhoefer     : DKH picture change effects
   Kantharuban Sivalingam : CASSCF convergence, NEVPT2, FIC-MRCI
   Georgi Stoychev        : AutoAux
   Boris Wezisla          : Elementary symmetry handling
   Frank Wennmohs         : Technical directorship


 We gratefully acknowledge several colleagues who have allowed us to
 interface, adapt or use parts of their codes:
   Stefan Grimme, W. Hujo, H. Kruse,             : VdW corrections, initial TS optimization,
                  C. Bannwarth                     DFT functionals, gCP, sTDA/sTD-DF
   Ed Valeev                                     : LibInt (2-el integral package), F12 methods
   Garnet Chan, S. Sharma, J. Yang, R. Olivares  : DMRG
   Ulf Ekstrom                                   : XCFun DFT Library
   Mihaly Kallay                                 : mrcc  (arbitrary order and MRCC methods)
   Andreas Klamt, Michael Diedenhofen            : otool_cosmo (COSMO solvation model)
   Jiri Pittner, Ondrej Demel                    : Mk-CCSD
   Frank Weinhold                                : gennbo (NPA and NBO analysis)
   Christopher J. Cramer and Donald G. Truhlar   : smd solvation model


 Your calculation uses the libint2 library for the computation of 2-el integrals
 For citations please refer to: http://libint.valeyev.net

 This ORCA versions uses:
   CBLAS   interface :  Fast vector & matrix operations
   LAPACKE interface :  Fast linear algebra routines
   SCALAPACK package :  Parallel linear algebra routines


Your calculation utilizes the atom-pairwise dispersion correction
with the Becke-Johnson damping scheme (D3BJ)
Cite in your paper:
S.Grimme, S.Ehrlich, L.Goerigk, J Comput Chem, (2011), 32, 1456–1465 
S.Grimme, J.Antony, S.Ehrlich and H.Krieg, J.Chem.Phys., 132, (2010), 154104 
   

Your calculation utilizes the basis: cc-pVDZ 
       H, B-Ne : Obtained from the ccRepo (grant-hill.group.shef.ac.uk/ccrepo) Feb. 2017
                 T. H. Dunning, Jr., J. Chem. Phys. 90, 1007 (1989)
            He : Obtained from the ccRepo (grant-hill.group.shef.ac.uk/ccrepo) Feb. 2017
                 D. E. Woon, T. H. Dunning, Jr., J. Chem. Phys. 100, 2975 (1994)
  Li-Be, Na-Mg : Obtained from the ccRepo (grant-hill.group.shef.ac.uk/ccrepo) Feb. 2017
                 B. P. Prascher, D. E. Woon, K. A. Peterson, T. H. Dunning, Jr., A. K. Wilson, Theor. Chem. Acc. 128, 69 (2011)
         Al-Ar : Obtained from the ccRepo (grant-hill.group.shef.ac.uk/ccrepo) Feb. 2017
                 D. E. Woon, T. H. Dunning, Jr., J. Chem. Phys. 98, 1358 (1993)
            Ca : Obtained from the Peterson Research Group Website (tyr0.chem.wsu.edu/~kipeters) Feb. 2017
                 J. Koput, K. A. Peterson, J. Phys. Chem. 106, 9595 (2002)
         Sc-Zn : Obtained from the ccRepo (grant-hill.group.shef.ac.uk/ccrepo) Feb. 2017
                 N. B. Balabanov, K. A. Peterson, J. Chem. Phys. 123, 064107 (2005)
                 N. B. Balabanov, K. A. Peterson, J. Chem. Phys. 125, 074110 (2006)
         Ga-Kr : Obtained from the ccRepo (grant-hill.group.shef.ac.uk/ccrepo) Feb. 2017
                 A. K. Wilson, D. E. Woon, K. A. Peterson, T. H. Dunning, Jr., J. Chem. Phys. 110, 7667 (1999)

Your calculation utilizes the auxiliary basis: def2/J
   F. Weigend, Phys. Chem. Chem. Phys. 8, 1057 (2006).

================================================================================
                                        WARNINGS
                       Please study these warnings very carefully!
================================================================================

Warning: TCutStore was < 0. Adjusted to Thresh (uncritical)

WARNING: Geometry Optimization
  ===> : Switching off AutoStart
         For restart on a previous wavefunction, please use MOREAD

INFO   : the flag for use of LIBINT has been found!

================================================================================
                                       INPUT FILE
================================================================================
NAME = AT-v/e/frag_17_c00001.com
|  1> %pal nprocs 6 end
|  2> %maxcore 1000
|  3> ! b3lyp TIGHTSCF nopop D3BJ
|  4> ! cc-pvdz def2/J RIJCOSX
|  5> ! Opt
|  6> 
|  7> %geom
|  8> maxiter 60
|  9> TolE 1e-4
| 10> TolRMSG 2e-3
| 11> TolMaxG 3e-3
| 12> TolRMSD 2e-2
| 13> TolMaxD 3e-2
| 14> end
| 15> 
| 16> *xyz 0 1
| 17> C 3.0599 -0.7334 0.0669
| 18> C 1.7259 -0.6648 -0.0723
| 19> N 1.052 -1.8467 -0.2666
| 20> N 0.9818 0.4878 -0.0376
| 21> C 1.5248 1.6441 0.1384
| 22> C -2.4722 1.5949 -0.2326
| 23> O -1.9132 2.6533 -0.4852
| 24> N -1.8207 0.4103 -0.0397
| 25> C -2.4149 -0.785 0.2429
| 26> O -1.7959 -1.8289 0.4101
| 27> H 3.5722 -1.689 0.0107
| 28> H 3.7024 0.1205 0.2223
| 29> H 1.5016 -2.6523 0.1516
| 30> H 0.0743 -1.7832 0.0285
| 31> H 2.5973 1.8467 0.2733
| 32> H 0.8733 2.5338 0.1569
| 33> H -3.5673 1.5191 -0.1356
| 34> H -0.8035 0.4128 -0.1259
| 35> H -3.5131 -0.7324 0.311
| 36> *
| 37> 
| 38> 
| 39>                          ****END OF INPUT****
================================================================================

                       *****************************
                       * Geometry Optimization Run *
                       *****************************

Geometry optimization settings:
Update method            Update   .... BFGS
Choice of coordinates    CoordSys .... Redundant Internals
Initial Hessian          InHess   .... Almoef's Model

Convergence Tolerances:
Energy Change            TolE     ....  1.0000e-04 Eh
Max. Gradient            TolMAXG  ....  3.0000e-03 Eh/bohr
RMS Gradient             TolRMSG  ....  2.0000e-03 Eh/bohr
Max. Displacement        TolMAXD  ....  3.0000e-02 bohr
RMS Displacement         TolRMSD  ....  2.0000e-02 bohr

------------------------------------------------------------------------------
                        ORCA OPTIMIZATION COORDINATE SETUP
------------------------------------------------------------------------------

The optimization will be done in new redundant internal coordinates
Making redundant internal coordinates   ...  (new redundants) done
Evaluating the initial hessian          ...  (Almloef) done
Evaluating the coordinates              ...  done
Calculating the B-matrix                .... done
Calculating the G-matrix                .... done
Diagonalizing the G-matrix              .... done
The first mode is                       ....   28
The number of degrees of freedom        ....   51

    -----------------------------------------------------------------
                    Redundant Internal Coordinates


    -----------------------------------------------------------------
         Definition                    Initial Value    Approx d2E/dq
    -----------------------------------------------------------------
      1. B(C   1,C   0)                  1.3430         0.742558   
      2. B(N   2,C   1)                  1.3743         0.592757   
      3. B(N   3,C   1)                  1.3724         0.597058   
      4. B(C   4,N   3)                  1.2895         0.809449   
      5. B(O   6,C   5)                  1.2233         1.032313   
      6. B(N   7,C   5)                  1.3656         0.612011   
      7. B(C   8,N   7)                  1.3644         0.614703   
      8. B(O   9,C   8)                  1.2251         1.025604   
      9. B(H  10,C   0)                  1.0857         0.365811   
     10. B(H  11,C   0)                  1.0799         0.373765   
     11. B(H  12,N   2)                  1.0129         0.428079   
     12. B(H  13,N   2)                  1.0232         0.412170   
     13. B(H  13,O   9)                  1.9093         0.015902   
     14. B(H  14,C   4)                  1.0998         0.347401   
     15. B(H  15,C   4)                  1.1029         0.343449   
     16. B(H  16,C   5)                  1.1020         0.344573   
     17. B(H  17,N   3)                  1.7891         0.024732   
     18. B(H  17,N   7)                  1.0208         0.415802   
     19. B(H  18,C   8)                  1.1016         0.345120   
     20. A(H  10,C   0,H  11)          115.0043         0.293274   
     21. A(C   1,C   0,H  11)          124.4386         0.366234   
     22. A(C   1,C   0,H  10)          120.5498         0.364887   
     23. A(C   0,C   1,N   3)          125.3698         0.442459   
     24. A(C   0,C   1,N   2)          117.2446         0.441881   
     25. A(N   2,C   1,N   3)          117.3856         0.422121   
     26. A(C   1,N   2,H  13)          111.9863         0.353018   
     27. A(H  12,N   2,H  13)          110.7564         0.300397   
     28. A(C   1,N   2,H  12)          114.0757         0.355291   
     29. A(C   4,N   3,H  17)          117.6799         0.238871   
     30. A(C   1,N   3,H  17)          120.3054         0.228895   
     31. A(C   1,N   3,C   4)          121.8864         0.446461   
     32. A(N   3,C   4,H  15)          118.4835         0.364056   
     33. A(N   3,C   4,H  14)          126.3400         0.364769   
     34. A(H  14,C   4,H  15)          115.1763         0.287072   
     35. A(O   6,C   5,N   7)          124.1712         0.468810   
     36. A(N   7,C   5,H  16)          113.7023         0.347380   
     37. A(O   6,C   5,H  16)          122.1259         0.379837   
     38. A(C   5,N   7,C   8)          125.5497         0.426759   
     39. A(C   8,N   7,H  17)          116.9730         0.355728   
     40. A(C   5,N   7,H  17)          117.4719         0.355464   
     41. A(N   7,C   8,O   9)          123.6902         0.468627   
     42. A(O   9,C   8,H  18)          122.4101         0.379512   
     43. A(N   7,C   8,H  18)          113.8996         0.347729   
     44. A(C   8,O   9,H  13)          116.5676         0.232077   
     45. A(N   2,H  13,O   9)          172.7909         0.189327   
     46. A(N   3,H  17,N   7)          172.0005         0.200095   
     47. D(N   2,C   1,C   0,H  11)    179.8707         0.039248   
     48. D(N   2,C   1,C   0,H  10)      0.9064         0.039248   
     49. D(N   3,C   1,C   0,H  11)     -0.0677         0.039248   
     50. D(N   3,C   1,C   0,H  10)   -179.0319         0.039248   
     51. D(H  12,N   2,C   1,N   3)   -151.2191         0.028264   
     52. D(H  13,N   2,C   1,N   3)    -24.4203         0.028264   
     53. D(H  12,N   2,C   1,C   0)     28.8375         0.028264   
     54. D(H  13,N   2,C   1,C   0)    155.6363         0.028264   
     55. D(H  17,N   3,C   1,N   2)      4.2779         0.028704   
     56. D(H  17,N   3,C   1,C   0)   -175.7838         0.028704   
     57. D(C   4,N   3,C   1,N   2)   -179.9356         0.028704   
     58. D(C   4,N   3,C   1,C   0)      0.0027         0.028704   
     59. D(H  15,C   4,N   3,C   1)   -179.9907         0.056022   
     60. D(H  14,C   4,N   3,H  17)    176.0811         0.056022   
     61. D(H  14,C   4,N   3,C   1)      0.1888         0.056022   
     62. D(H  15,C   4,N   3,H  17)     -4.0984         0.056022   
     63. D(H  17,N   7,C   5,H  16)    179.3855         0.030269   
     64. D(H  17,N   7,C   5,O   6)     -0.8760         0.030269   
     65. D(C   8,N   7,C   5,H  16)      0.2647         0.030269   
     66. D(C   8,N   7,C   5,O   6)   -179.9968         0.030269   
     67. D(H  18,C   8,N   7,H  17)   -179.2093         0.030557   
     68. D(H  18,C   8,N   7,C   5)     -0.0846         0.030557   
     69. D(O   9,C   8,N   7,H  17)      0.8954         0.030557   
     70. D(O   9,C   8,N   7,C   5)   -179.9799         0.030557   
     71. D(H  13,O   9,C   8,H  18)    172.1618         0.086844   
     72. D(H  13,O   9,C   8,N   7)     -7.9516         0.086844   
     73. D(N   2,H  13,O   9,C   8)   -117.9370         0.001617   
     74. D(O   9,H  13,N   2,H  12)    -80.9929         0.191263   
     75. D(O   9,H  13,N   2,C   1)    150.4354         0.191263   
     76. D(N   7,H  17,N   3,C   4)    -66.1874         0.001828   
     77. D(N   7,H  17,N   3,C   1)    109.7729         0.001828   
     78. D(N   3,H  17,N   7,C   8)    -95.5171         0.195524   
     79. D(N   3,H  17,N   7,C   5)     85.2855         0.195524   
    -----------------------------------------------------------------

Number of atoms                         .... 19
Number of degrees of freedom            .... 79

         *************************************************************
         *                GEOMETRY OPTIMIZATION CYCLE   1            *
         *************************************************************
---------------------------------
CARTESIAN COORDINATES (ANGSTROEM)
---------------------------------
  C      3.059900   -0.733400    0.066900
  C      1.725900   -0.664800   -0.072300
  N      1.052000   -1.846700   -0.266600
  N      0.981800    0.487800   -0.037600
  C      1.524800    1.644100    0.138400
  C     -2.472200    1.594900   -0.232600
  O     -1.913200    2.653300   -0.485200
  N     -1.820700    0.410300   -0.039700
  C     -2.414900   -0.785000    0.242900
  O     -1.795900   -1.828900    0.410100
  H      3.572200   -1.689000    0.010700
  H      3.702400    0.120500    0.222300
  H      1.501600   -2.652300    0.151600
  H      0.074300   -1.783200    0.028500
  H      2.597300    1.846700    0.273300
  H      0.873300    2.533800    0.156900
  H     -3.567300    1.519100   -0.135600
  H     -0.803500    0.412800   -0.125900
  H     -3.513100   -0.732400    0.311000

----------------------------
CARTESIAN COORDINATES (A.U.)
----------------------------
  NO LB      ZA    FRAG     MASS         X           Y           Z
   0 C     6.0000    0    12.011    5.782373   -1.385925    0.126423
   1 C     6.0000    0    12.011    3.261478   -1.256290   -0.136627
   2 N     7.0000    0    14.007    1.987992   -3.489757   -0.503801
   3 N     7.0000    0    14.007    1.855333    0.921808   -0.071054
   4 C     6.0000    0    12.011    2.881454    3.106899    0.261538
   5 C     6.0000    0    12.011   -4.671781    3.013924   -0.439550
   6 O     8.0000    0    15.999   -3.615424    5.014010   -0.916895
   7 N     7.0000    0    14.007   -3.440624    0.775355   -0.075022
   8 C     6.0000    0    12.011   -4.563500   -1.483435    0.459014
   9 O     8.0000    0    15.999   -3.393759   -3.456120    0.774977
  10 H     1.0000    0     1.008    6.750480   -3.191747    0.020220
  11 H     1.0000    0     1.008    6.996522    0.227712    0.420086
  12 H     1.0000    0     1.008    2.837613   -5.012121    0.286482
  13 H     1.0000    0     1.008    0.140407   -3.369760    0.053857
  14 H     1.0000    0     1.008    4.908186    3.489757    0.516462
  15 H     1.0000    0     1.008    1.650298    4.788188    0.296498
  16 H     1.0000    0     1.008   -6.741220    2.870683   -0.256247
  17 H     1.0000    0     1.008   -1.518395    0.780079   -0.237917
  18 H     1.0000    0     1.008   -6.638797   -1.384035    0.587705

--------------------------------
INTERNAL COORDINATES (ANGSTROEM)
--------------------------------
 C      0   0   0     0.000000000000     0.00000000     0.00000000
 C      1   0   0     1.342996128066     0.00000000     0.00000000
 N      2   1   0     1.374329403746   117.24456008     0.00000000
 N      2   1   3     1.372361344545   125.36981248   180.06164911
 C      4   2   1     1.289517231370   121.88641032     0.00000000
 C      4   2   1     3.632328648402   140.37281563   181.75445069
 O      6   4   2     1.223314481235    80.80854972   198.60752187
 N      6   4   2     1.365627994734    43.47964029    14.56791825
 C      8   6   4     1.364433395223   125.54971752   175.18168617
 O      9   8   6     1.225089404901   123.69022697   180.02010242
 H      1   2   3     1.085716855354   120.54975687     0.90644344
 H      1   2   3     1.079861389253   124.43859803   179.87070001
 H      3   2   1     1.012927815789   114.07572433    28.83750059
 H      3   2   1     1.023236800550   111.98626959   155.63628330
 H      5   4   2     1.099773167521   126.33997030     0.18875414
 H      5   4   2     1.102887387724   118.48350265   180.00931195
 H      6   4   2     1.101997572593   156.81858633    26.46114696
 H      8   6   4     1.020848926139   117.47186206   354.30250503
 H      9   8   6     1.101565980775   113.89956143   359.91541883

---------------------------
INTERNAL COORDINATES (A.U.)
---------------------------
 C      0   0   0     0.000000000000     0.00000000     0.00000000
 C      1   0   0     2.537894880961     0.00000000     0.00000000
 N      2   1   0     2.597106190875   117.24456008     0.00000000
 N      2   1   3     2.593387097969   125.36981248   180.06164911
 C      4   2   1     2.436834412262   121.88641032     0.00000000
 C      4   2   1     6.864106373876   140.37281563   181.75445069
 O      6   4   2     2.311729345195    80.80854972   198.60752187
 N      6   4   2     2.580662910862    43.47964029    14.56791825
 C      8   6   4     2.578405444948   125.54971752   175.18168617
 O      9   8   6     2.315083464831   123.69022697   180.02010242
 H      1   2   3     2.051707515601   120.54975687     0.90644344
 H      1   2   3     2.040642288284   124.43859803   179.87070001
 H      3   2   1     1.914156165273   114.07572433    28.83750059
 H      3   2   1     1.933637323189   111.98626959   155.63628330
 H      5   4   2     2.078270096050   126.33997030     0.18875414
 H      5   4   2     2.084155119354   118.48350265   180.00931195
 H      6   4   2     2.082473612446   156.81858633    26.46114696
 H      8   6   4     1.929124894511   117.47186206   354.30250503
 H      9   8   6     2.081658022108   113.89956143   359.91541883

---------------------
BASIS SET INFORMATION
---------------------
There are 4 groups of distinct atoms

 Group   1 Type C   : 17s4p1d contracted to 3s2p1d pattern {881/31/1}
 Group   2 Type N   : 17s4p1d contracted to 3s2p1d pattern {881/31/1}
 Group   3 Type O   : 17s4p1d contracted to 3s2p1d pattern {881/31/1}
 Group   4 Type H   : 4s1p contracted to 2s1p pattern {31/1}

Atom   0C    basis set group =>   1
Atom   1C    basis set group =>   1
Atom   2N    basis set group =>   2
Atom   3N    basis set group =>   2
Atom   4C    basis set group =>   1
Atom   5C    basis set group =>   1
Atom   6O    basis set group =>   3
Atom   7N    basis set group =>   2
Atom   8C    basis set group =>   1
Atom   9O    basis set group =>   3
Atom  10H    basis set group =>   4
Atom  11H    basis set group =>   4
Atom  12H    basis set group =>   4
Atom  13H    basis set group =>   4
Atom  14H    basis set group =>   4
Atom  15H    basis set group =>   4
Atom  16H    basis set group =>   4
Atom  17H    basis set group =>   4
Atom  18H    basis set group =>   4
-------------------------------
AUXILIARY BASIS SET INFORMATION
-------------------------------
There are 4 groups of distinct atoms

 Group   1 Type C   : 12s5p4d2f1g contracted to 6s4p3d1f1g pattern {711111/2111/211/2/1}
 Group   2 Type N   : 12s5p4d2f1g contracted to 6s4p3d1f1g pattern {711111/2111/211/2/1}
 Group   3 Type O   : 12s5p4d2f1g contracted to 6s4p3d1f1g pattern {711111/2111/211/2/1}
 Group   4 Type H   : 5s2p1d contracted to 3s1p1d pattern {311/2/1}

Atom   0C    basis set group =>   1
Atom   1C    basis set group =>   1
Atom   2N    basis set group =>   2
Atom   3N    basis set group =>   2
Atom   4C    basis set group =>   1
Atom   5C    basis set group =>   1
Atom   6O    basis set group =>   3
Atom   7N    basis set group =>   2
Atom   8C    basis set group =>   1
Atom   9O    basis set group =>   3
Atom  10H    basis set group =>   4
Atom  11H    basis set group =>   4
Atom  12H    basis set group =>   4
Atom  13H    basis set group =>   4
Atom  14H    basis set group =>   4
Atom  15H    basis set group =>   4
Atom  16H    basis set group =>   4
Atom  17H    basis set group =>   4
Atom  18H    basis set group =>   4


           ************************************************************
           *        Program running with 6 parallel MPI-processes     *
           *              working on a common directory               *
           ************************************************************
------------------------------------------------------------------------------
                           ORCA GTO INTEGRAL CALCULATION
                           -- RI-GTO INTEGRALS CHOSEN --
------------------------------------------------------------------------------

                         BASIS SET STATISTICS AND STARTUP INFO

Gaussian basis set:
 # of primitive gaussian shells          ...  265
 # of primitive gaussian functions       ...  403
 # of contracted shells                  ...   87
 # of contracted basis functions         ...  185
 Highest angular momentum                ...    2
 Maximum contraction depth               ...    8
Auxiliary gaussian basis set:
 # of primitive gaussian shells          ...  312
 # of primitive gaussian functions       ...  844
 # of contracted shells                  ...  195
 # of contracted aux-basis functions     ...  589
 Highest angular momentum                ...    4
 Maximum contraction depth               ...    7
Ratio of auxiliary to basis functions    ...  3.18
Integral package used                  ... LIBINT
 One Electron integrals                  ... done
 Ordering auxiliary basis shells         ... done
 Integral threshhold             Thresh  ...  2.500e-11
 Primitive cut-off               TCut    ...  2.500e-12
 Pre-screening matrix                    ... done
 Shell pair data                         ... 
 Ordering of the shell pairs             ... done (   0.001 sec) 3487 of 3828 pairs
 Determination of significant pairs      ... done (   0.000 sec)
 Creation of shell pair data             ... done (   0.001 sec)
 Storage of shell pair data              ... done (   0.002 sec)
 Shell pair data done in (   0.004 sec)
 Computing two index integrals           ... done
 Cholesky decomposition of the V-matrix  ... done


Timings:
 Total evaluation time                   ...   0.388 sec (  0.006 min)
 One electron matrix time                ...   0.051 sec (  0.001 min) = 13.1%
 Schwartz matrix evaluation time         ...   0.284 sec (  0.005 min) = 73.3%
 Two index repulsion integral time       ...   0.014 sec (  0.000 min) =  3.7%
 Cholesky decomposition of V             ...   0.011 sec (  0.000 min) =  2.7%
 Three index repulsion integral time     ...   0.000 sec (  0.000 min) =  0.0%



           ************************************************************
           *        Program running with 6 parallel MPI-processes     *
           *              working on a common directory               *
           ************************************************************
-------------------------------------------------------------------------------
                                 ORCA SCF
-------------------------------------------------------------------------------

------------
SCF SETTINGS
------------
Hamiltonian:
 Density Functional     Method          .... DFT(GTOs)
 Exchange Functional    Exchange        .... B88
   X-Alpha parameter    XAlpha          ....  0.666667
   Becke's b parameter  XBeta           ....  0.004200
 Correlation Functional Correlation     .... LYP
 LDA part of GGA corr.  LDAOpt          .... VWN-5
 Gradients option       PostSCFGGA      .... off
 Hybrid DFT is turned on
   Fraction HF Exchange ScalHFX         ....  0.200000
   Scaling of DF-GGA-X  ScalDFX         ....  0.720000
   Scaling of DF-GGA-C  ScalDFC         ....  0.810000
   Scaling of DF-LDA-C  ScalLDAC        ....  1.000000
   Perturbative correction              ....  0.000000
   NL short-range parameter             ....  4.800000
 RI-approximation to the Coulomb term is turned on
   Number of auxiliary basis functions  .... 589
   RIJ-COSX (HFX calculated with COS-X)).... on


General Settings:
 Integral files         IntName         .... AT-v/e/frag_17_c00001
 Hartree-Fock type      HFTyp           .... RHF
 Total Charge           Charge          ....    0
 Multiplicity           Mult            ....    1
 Number of Electrons    NEL             ....   76
 Basis Dimension        Dim             ....  185
 Nuclear Repulsion      ENuc            ....    508.9712458053 Eh

Convergence Acceleration:
 DIIS                   CNVDIIS         .... on
   Start iteration      DIISMaxIt       ....    12
   Startup error        DIISStart       ....  0.200000
   # of expansion vecs  DIISMaxEq       ....     5
   Bias factor          DIISBfac        ....   1.050
   Max. coefficient     DIISMaxC        ....  10.000
 Newton-Raphson         CNVNR           .... off
 SOSCF                  CNVSOSCF        .... on
   Start iteration      SOSCFMaxIt      ....   150
   Startup grad/error   SOSCFStart      ....  0.003300
 Level Shifting         CNVShift        .... on
   Level shift para.    LevelShift      ....    0.2500
   Turn off err/grad.   ShiftErr        ....    0.0010
 Zerner damping         CNVZerner       .... off
 Static damping         CNVDamp         .... on
   Fraction old density DampFac         ....    0.7000
   Max. Damping (<1)    DampMax         ....    0.9800
   Min. Damping (>=0)   DampMin         ....    0.0000
   Turn off err/grad.   DampErr         ....    0.1000
 Fernandez-Rico         CNVRico         .... off

SCF Procedure:
 Maximum # iterations   MaxIter         ....   125
 SCF integral mode      SCFMode         .... Direct
   Integral package                     .... LIBINT
 Reset frequeny         DirectResetFreq ....    20
 Integral Threshold     Thresh          ....  2.500e-11 Eh
 Primitive CutOff       TCut            ....  2.500e-12 Eh

Convergence Tolerance:
 Convergence Check Mode ConvCheckMode   .... Total+1el-Energy
 Convergence forced     ConvForced      .... 0
 Energy Change          TolE            ....  1.000e-08 Eh
 1-El. energy change                    ....  1.000e-05 Eh
 Orbital Gradient       TolG            ....  1.000e-05
 Orbital Rotation angle TolX            ....  1.000e-05
 DIIS Error             TolErr          ....  5.000e-07


Diagonalization of the overlap matrix:
Smallest eigenvalue                        ... 2.287e-03
Time for diagonalization                   ...    0.008 sec
Threshold for overlap eigenvalues          ... 1.000e-08
Number of eigenvalues below threshold      ... 0
Time for construction of square roots      ...    0.004 sec
Total time needed                          ...    0.013 sec

-------------------
DFT GRID GENERATION
-------------------

General Integration Accuracy     IntAcc      ...  4.340
Radial Grid Type                 RadialGrid  ... Gauss-Chebyshev
Angular Grid (max. acc.)         AngularGrid ... Lebedev-110
Angular grid pruning method      GridPruning ... 3 (G Style)
Weight generation scheme         WeightScheme... Becke
Basis function cutoff            BFCut       ...    1.0000e-11
Integration weight cutoff        WCut        ...    1.0000e-14
Grids for H and He will be reduced by one unit

# of grid points (after initial pruning)     ...  23964 (   0.0 sec)
# of grid points (after weights+screening)   ...  22259 (   0.0 sec)
nearest neighbour list constructed           ...    0.0 sec
Grid point re-assignment to atoms done       ...    0.0 sec
Grid point division into batches done        ...    0.0 sec
Reduced shell lists constructed in    0.1 sec

Total number of grid points                  ...    22259
Total number of batches                      ...      359
Average number of points per batch           ...       62
Average number of grid points per atom       ...     1172
Average number of shells per batch           ...    64.93 (74.64%)
Average number of basis functions per batch  ...   134.11 (72.49%)
Average number of large shells per batch     ...    49.46 (76.17%)
Average number of large basis fcns per batch ...   101.16 (75.43%)
Maximum spatial batch extension              ...   9.59,  8.50, 18.63 au
Average spatial batch extension              ...   0.33,  0.34,  0.52 au

Time for grid setup =    0.119 sec

------------------------------
INITIAL GUESS: MODEL POTENTIAL
------------------------------
Loading Hartree-Fock densities                     ... done
Calculating cut-offs                               ... done
Setting up the integral package                    ... done
Initializing the effective Hamiltonian             ... done
Starting the Coulomb interaction                   ... done (   0.0 sec)
Reading the grid                                   ... done
Mapping shells                                     ... done
Starting the XC term evaluation                    ... done (   0.1 sec)
  promolecular density results
     # of electrons  =     76.003535186
     EX              =    -64.468362760
     EC              =     -2.596968117
     EX+EC           =    -67.065330877
Transforming the Hamiltonian                       ... done (   0.0 sec)
Diagonalizing the Hamiltonian                      ... done (   0.0 sec)
Back transforming the eigenvectors                 ... done (   0.0 sec)
Now organizing SCF variables                       ... done
                      ------------------
                      INITIAL GUESS DONE (   0.4 sec)
                      ------------------
--------------------
COSX GRID GENERATION
--------------------

General Integration Accuracy     IntAcc      ...  3.340
Radial Grid Type                 RadialGrid  ... Gauss-Chebyshev
Angular Grid (max. acc.)         AngularGrid ... Lebedev-50
Angular grid pruning method      GridPruning ... 3 (G Style)
Weight generation scheme         WeightScheme... Becke
Basis function cutoff            BFCut       ...    1.0000e-11
Integration weight cutoff        WCut        ...    1.0000e-14
Grids for H and He will be reduced by one unit

# of grid points (after initial pruning)     ...   8638 (   0.0 sec)
# of grid points (after weights+screening)   ...   8086 (   0.0 sec)
nearest neighbour list constructed           ...    0.0 sec
Grid point re-assignment to atoms done       ...    0.0 sec
Grid point division into batches done        ...    0.0 sec
Reduced shell lists constructed in    0.0 sec

Total number of grid points                  ...     8086
Total number of batches                      ...      136
Average number of points per batch           ...       59
Average number of grid points per atom       ...      426
Average number of shells per batch           ...    66.38 (76.29%)
Average number of basis functions per batch  ...   137.54 (74.35%)
Average number of large shells per batch     ...    50.25 (75.71%)
Average number of large basis fcns per batch ...   102.92 (74.83%)
Maximum spatial batch extension              ...   7.30,  8.18, 15.39 au
Average spatial batch extension              ...   0.42,  0.46,  0.72 au

Overlap Fitting                  UseSFitting ... on
Constructing numerical overlap ... done (      0.0 sec)
Inverting numerical overlap    ... done (      0.0 sec)
Obtaining analytic overlap     ... done (      0.0 sec)
Final contraction and storage  ... done (      0.0 sec)


General Integration Accuracy     IntAcc      ...  3.670
Radial Grid Type                 RadialGrid  ... Gauss-Chebyshev
Angular Grid (max. acc.)         AngularGrid ... Lebedev-50
Angular grid pruning method      GridPruning ... 3 (G Style)
Weight generation scheme         WeightScheme... Becke
Basis function cutoff            BFCut       ...    1.0000e-11
Integration weight cutoff        WCut        ...    1.0000e-14
Grids for H and He will be reduced by one unit

# of grid points (after initial pruning)     ...  11032 (   0.0 sec)
# of grid points (after weights+screening)   ...  10292 (   0.0 sec)
nearest neighbour list constructed           ...    0.0 sec
Grid point re-assignment to atoms done       ...    0.0 sec
Grid point division into batches done        ...    0.0 sec
Reduced shell lists constructed in    0.0 sec

Total number of grid points                  ...    10292
Total number of batches                      ...      172
Average number of points per batch           ...       59
Average number of grid points per atom       ...      542
Average number of shells per batch           ...    65.87 (75.71%)
Average number of basis functions per batch  ...   136.33 (73.69%)
Average number of large shells per batch     ...    49.00 (74.39%)
Average number of large basis fcns per batch ...   100.67 (73.84%)
Maximum spatial batch extension              ...   9.18,  9.16, 16.52 au
Average spatial batch extension              ...   0.39,  0.39,  0.66 au

Overlap Fitting                  UseSFitting ... on
Constructing numerical overlap ... done (      0.0 sec)
Inverting numerical overlap    ... done (      0.0 sec)
Obtaining analytic overlap     ... done (      0.0 sec)
Final contraction and storage  ... done (      0.0 sec)


General Integration Accuracy     IntAcc      ...  4.010
Radial Grid Type                 RadialGrid  ... Gauss-Chebyshev
Angular Grid (max. acc.)         AngularGrid ... Lebedev-110
Angular grid pruning method      GridPruning ... 3 (G Style)
Weight generation scheme         WeightScheme... Becke
Basis function cutoff            BFCut       ...    1.0000e-11
Integration weight cutoff        WCut        ...    1.0000e-14
Grids for H and He will be reduced by one unit

# of grid points (after initial pruning)     ...  20600 (   0.0 sec)
# of grid points (after weights+screening)   ...  19172 (   0.0 sec)
nearest neighbour list constructed           ...    0.0 sec
Grid point re-assignment to atoms done       ...    0.0 sec
Grid point division into batches done        ...    0.0 sec
Reduced shell lists constructed in    0.1 sec

Total number of grid points                  ...    19172
Total number of batches                      ...      307
Average number of points per batch           ...       62
Average number of grid points per atom       ...     1009
Average number of shells per batch           ...    64.89 (74.58%)
Average number of basis functions per batch  ...   133.79 (72.32%)
Average number of large shells per batch     ...    49.43 (76.18%)
Average number of large basis fcns per batch ...   100.94 (75.45%)
Maximum spatial batch extension              ...   9.21,  9.13, 17.71 au
Average spatial batch extension              ...   0.35,  0.33,  0.56 au

Overlap Fitting                  UseSFitting ... on
Constructing numerical overlap ... done (      0.0 sec)
Inverting numerical overlap    ... done (      0.0 sec)
Obtaining analytic overlap     ... done (      0.0 sec)
Final contraction and storage  ... done (      0.0 sec)

Time for X-Grid setup             =    0.353 sec
--------------
SCF ITERATIONS
--------------
ITER       Energy         Delta-E        Max-DP      RMS-DP      [F,P]     Damp
               ***  Starting incremental Fock matrix formation  ***
  0   -509.9848466483   0.000000000000 0.10248251  0.00254030  0.2688989 0.7000
  1   -510.1727758283  -0.187929180004 0.05778427  0.00159395  0.1146061 0.7000
                               ***Turning on DIIS***
  2   -510.2356468062  -0.062870977817 0.10106516  0.00221600  0.0462286 0.0000
  3   -510.3449528975  -0.109306091319 0.03630131  0.00111529  0.0622608 0.0000
  4   -510.3662262153  -0.021273317794 0.01218437  0.00035261  0.0184982 0.0000
  5   -510.3685278246  -0.002301609361 0.00332180  0.00011116  0.0049405 0.0000
                      *** Initiating the SOSCF procedure ***
                           *** Shutting down DIIS ***
                      *** Re-Reading the Fockian *** 
                      *** Removing any level shift *** 
ITER      Energy       Delta-E        Grad      Rot      Max-DP    RMS-DP
  6   -510.36863832  -0.0001104995  0.000590  0.000590  0.001244  0.000039
               *** Restarting incremental Fock matrix formation ***
  7   -510.36866116  -0.0000228320  0.000345  0.001370  0.001245  0.000028
  8   -510.36866034   0.0000008189  0.000451  0.000472  0.000818  0.000015
  9   -510.36866313  -0.0000027941  0.000062  0.000255  0.000263  0.000007
 10   -510.36866316  -0.0000000242  0.000072  0.000091  0.000159  0.000003
 11   -510.36866326  -0.0000001060  0.000009  0.000028  0.000055  0.000001
 12   -510.36866326  -0.0000000018  0.000015  0.000022  0.000038  0.000001
 13   -510.36866327  -0.0000000087  0.000004  0.000007  0.000017  0.000000
 14   -510.36866327  -0.0000000007  0.000004  0.000004  0.000012  0.000000
                  ***Gradient check signals convergence***
              ***Rediagonalizing the Fockian in SOSCF/NRSCF***

               *****************************************************
               *                     SUCCESS                       *
               *           SCF CONVERGED AFTER  15 CYCLES          *
               *****************************************************

Setting up the final grid:

General Integration Accuracy     IntAcc      ...  4.670
Radial Grid Type                 RadialGrid  ... Gauss-Chebyshev
Angular Grid (max. acc.)         AngularGrid ... Lebedev-302
Angular grid pruning method      GridPruning ... 3 (G Style)
Weight generation scheme         WeightScheme... Becke
Basis function cutoff            BFCut       ...    1.0000e-11
Integration weight cutoff        WCut        ...    1.0000e-14
Grids for H and He will be reduced by one unit

# of grid points (after initial pruning)     ...  92666 (   0.0 sec)
# of grid points (after weights+screening)   ...  84756 (   0.1 sec)
nearest neighbour list constructed           ...    0.0 sec
Grid point re-assignment to atoms done       ...    0.0 sec
Grid point division into batches done        ...    0.3 sec
Reduced shell lists constructed in    0.5 sec

Total number of grid points                  ...    84756
Total number of batches                      ...     1334
Average number of points per batch           ...       63
Average number of grid points per atom       ...     4461
Average number of shells per batch           ...    61.34 (70.50%)
Average number of basis functions per batch  ...   125.61 (67.90%)
Average number of large shells per batch     ...    45.96 (74.92%)
Average number of large basis fcns per batch ...    93.71 (74.60%)
Maximum spatial batch extension              ...  10.40, 10.30, 17.51 au
Average spatial batch extension              ...   0.24,  0.25,  0.30 au

Final grid set up in    0.7 sec
Final integration                            ... done (   0.4 sec)
Change in XC energy                          ...    -0.000043269
Integrated number of electrons               ...    76.000059268
Previous integrated no of electrons          ...    76.004453399
Old exchange energy                            =    -13.077097122 Eh
New exchange energy                            =    -13.076323970 Eh
Exchange energy change after final integration =      0.000773152 Eh
Total energy after final integration           =   -510.367933387 Eh
Final COS-X integration done in                =     2.533 sec

----------------
TOTAL SCF ENERGY
----------------

Total Energy       :         -510.36793339 Eh          -13887.81751 eV

Components:
Nuclear Repulsion  :          508.97124581 Eh           13849.81171 eV
Electronic Energy  :        -1019.33917919 Eh          -27737.62922 eV
One Electron Energy:        -1703.36420545 Eh          -46350.89646 eV
Two Electron Energy:          684.02502626 Eh           18613.26724 eV

Virial components:
Potential Energy   :        -1017.91632851 Eh          -27698.91148 eV
Kinetic Energy     :          507.54839512 Eh           13811.09397 eV
Virial Ratio       :            2.00555521


DFT components:
N(Alpha)           :       38.000029634238 electrons
N(Beta)            :       38.000029634238 electrons
N(Total)           :       76.000059268475 electrons
E(X)               :      -52.019288574145 Eh       
E(C)               :       -3.065390597098 Eh       
E(XC)              :      -55.084679171243 Eh       

---------------
SCF CONVERGENCE
---------------

  Last Energy change         ...    2.9725e-09  Tolerance :   1.0000e-08
  Last MAX-Density change    ...    2.0216e-13  Tolerance :   1.0000e-07
  Last RMS-Density change    ...    1.2474e-15  Tolerance :   5.0000e-09
  Last Orbital Gradient      ...    6.8270e-07  Tolerance :   1.0000e-05
  Last Orbital Rotation      ...    3.3130e-06  Tolerance :   1.0000e-05

             **** THE GBW FILE WAS UPDATED (AT-v/e/frag_17_c00001.gbw) ****
             **** DENSITY FILE WAS UPDATED (AT-v/e/frag_17_c00001.scfp.tmp) ****
             **** ENERGY FILE WAS UPDATED (AT-v/e/frag_17_c00001.en.tmp) ****
----------------
ORBITAL ENERGIES
----------------

  NO   OCC          E(Eh)            E(eV) 
   0   2.0000     -19.148351      -521.0531 
   1   2.0000     -19.139613      -520.8153 
   2   2.0000     -14.377737      -391.2381 
   3   2.0000     -14.358006      -390.7012 
   4   2.0000     -14.310034      -389.3958 
   5   2.0000     -10.318505      -280.7808 
   6   2.0000     -10.311582      -280.5924 
   7   2.0000     -10.251288      -278.9517 
   8   2.0000     -10.240470      -278.6574 
   9   2.0000     -10.154958      -276.3305 
  10   2.0000      -1.072686       -29.1893 
  11   2.0000      -1.052714       -28.6458 
  12   2.0000      -0.968161       -26.3450 
  13   2.0000      -0.948894       -25.8207 
  14   2.0000      -0.885209       -24.0878 
  15   2.0000      -0.723188       -19.6790 
  16   2.0000      -0.677028       -18.4229 
  17   2.0000      -0.672387       -18.2966 
  18   2.0000      -0.649782       -17.6815 
  19   2.0000      -0.553403       -15.0589 
  20   2.0000      -0.544016       -14.8034 
  21   2.0000      -0.521488       -14.1904 
  22   2.0000      -0.499674       -13.5968 
  23   2.0000      -0.488413       -13.2904 
  24   2.0000      -0.456943       -12.4341 
  25   2.0000      -0.449713       -12.2373 
  26   2.0000      -0.442313       -12.0359 
  27   2.0000      -0.430147       -11.7049 
  28   2.0000      -0.425064       -11.5666 
  29   2.0000      -0.404586       -11.0093 
  30   2.0000      -0.393488       -10.7074 
  31   2.0000      -0.378287       -10.2937 
  32   2.0000      -0.308884        -8.4052 
  33   2.0000      -0.303136        -8.2487 
  34   2.0000      -0.293890        -7.9972 
  35   2.0000      -0.282679        -7.6921 
  36   2.0000      -0.270442        -7.3591 
  37   2.0000      -0.194779        -5.3002 
  38   0.0000      -0.064049        -1.7429 
  39   0.0000      -0.042427        -1.1545 
  40   0.0000       0.027491         0.7481 
  41   0.0000       0.062378         1.6974 
  42   0.0000       0.072691         1.9780 
  43   0.0000       0.078333         2.1316 
  44   0.0000       0.098830         2.6893 
  45   0.0000       0.113143         3.0788 
  46   0.0000       0.121069         3.2945 
  47   0.0000       0.140041         3.8107 
  48   0.0000       0.164548         4.4776 
  49   0.0000       0.193385         5.2623 
  50   0.0000       0.197913         5.3855 
  51   0.0000       0.214492         5.8366 
  52   0.0000       0.251821         6.8524 
  53   0.0000       0.274610         7.4725 
  54   0.0000       0.292587         7.9617 
  55   0.0000       0.316245         8.6055 
  56   0.0000       0.363606         9.8942 
  57   0.0000       0.373526        10.1642 
  58   0.0000       0.381256        10.3745 
  59   0.0000       0.403859        10.9896 
  60   0.0000       0.439436        11.9577 
  61   0.0000       0.446616        12.1531 
  62   0.0000       0.459806        12.5120 
  63   0.0000       0.466557        12.6957 
  64   0.0000       0.471383        12.8270 
  65   0.0000       0.499643        13.5960 
  66   0.0000       0.512460        13.9448 
  67   0.0000       0.521379        14.1874 
  68   0.0000       0.530489        14.4354 
  69   0.0000       0.531679        14.4677 
  70   0.0000       0.557107        15.1596 
  71   0.0000       0.588139        16.0041 
  72   0.0000       0.589449        16.0397 
  73   0.0000       0.600259        16.3339 
  74   0.0000       0.621075        16.9003 
  75   0.0000       0.632726        17.2174 
  76   0.0000       0.635469        17.2920 
  77   0.0000       0.650057        17.6889 
  78   0.0000       0.669907        18.2291 
  79   0.0000       0.684555        18.6277 
  80   0.0000       0.714209        19.4346 
  81   0.0000       0.734499        19.9867 
  82   0.0000       0.768742        20.9185 
  83   0.0000       0.778860        21.1939 
  84   0.0000       0.815363        22.1871 
  85   0.0000       0.823001        22.3950 
  86   0.0000       0.830066        22.5872 
  87   0.0000       0.858574        23.3630 
  88   0.0000       0.884345        24.0642 
  89   0.0000       0.898501        24.4494 
  90   0.0000       0.911466        24.8023 
  91   0.0000       0.914293        24.8792 
  92   0.0000       0.928693        25.2710 
  93   0.0000       0.933609        25.4048 
  94   0.0000       0.965726        26.2788 
  95   0.0000       0.981293        26.7023 
  96   0.0000       0.986137        26.8341 
  97   0.0000       0.996328        27.1115 
  98   0.0000       1.020084        27.7579 
  99   0.0000       1.029863        28.0240 
 100   0.0000       1.068049        29.0631 
 101   0.0000       1.086377        29.5618 
 102   0.0000       1.090077        29.6625 
 103   0.0000       1.122288        30.5390 
 104   0.0000       1.135025        30.8856 
 105   0.0000       1.154729        31.4218 
 106   0.0000       1.179615        32.0990 
 107   0.0000       1.200878        32.6775 
 108   0.0000       1.228387        33.4261 
 109   0.0000       1.247943        33.9583 
 110   0.0000       1.260902        34.3109 
 111   0.0000       1.289470        35.0883 
 112   0.0000       1.345363        36.6092 
 113   0.0000       1.359774        37.0013 
 114   0.0000       1.378805        37.5192 
 115   0.0000       1.416063        38.5330 
 116   0.0000       1.460936        39.7541 
 117   0.0000       1.467002        39.9192 
 118   0.0000       1.474871        40.1333 
 119   0.0000       1.494175        40.6586 
 120   0.0000       1.509615        41.0787 
 121   0.0000       1.529879        41.6301 
 122   0.0000       1.547196        42.1014 
 123   0.0000       1.557150        42.3722 
 124   0.0000       1.578302        42.9478 
 125   0.0000       1.607299        43.7368 
 126   0.0000       1.626336        44.2549 
 127   0.0000       1.636171        44.5225 
 128   0.0000       1.663225        45.2586 
 129   0.0000       1.668343        45.3979 
 130   0.0000       1.681827        45.7649 
 131   0.0000       1.695321        46.1320 
 132   0.0000       1.697263        46.1849 
 133   0.0000       1.711621        46.5756 
 134   0.0000       1.735211        47.2175 
 135   0.0000       1.760736        47.9121 
 136   0.0000       1.778082        48.3841 
 137   0.0000       1.782478        48.5037 
 138   0.0000       1.804745        49.1096 
 139   0.0000       1.860163        50.6176 
 140   0.0000       1.876226        51.0547 
 141   0.0000       1.885830        51.3160 
 142   0.0000       1.901342        51.7382 
 143   0.0000       1.938608        52.7522 
 144   0.0000       1.952233        53.1230 
 145   0.0000       1.987951        54.0949 
 146   0.0000       2.060842        56.0784 
 147   0.0000       2.110495        57.4295 
 148   0.0000       2.112962        57.4966 
 149   0.0000       2.149712        58.4966 
 150   0.0000       2.203184        59.9517 
 151   0.0000       2.224664        60.5362 
 152   0.0000       2.253720        61.3268 
 153   0.0000       2.262461        61.5647 
 154   0.0000       2.284455        62.1632 
 155   0.0000       2.316508        63.0354 
 156   0.0000       2.329067        63.3771 
 157   0.0000       2.333501        63.4978 
 158   0.0000       2.365439        64.3669 
 159   0.0000       2.395371        65.1814 
 160   0.0000       2.417161        65.7743 
 161   0.0000       2.472742        67.2867 
 162   0.0000       2.477624        67.4196 
 163   0.0000       2.548384        69.3451 
 164   0.0000       2.572127        69.9911 
 165   0.0000       2.592354        70.5415 
 166   0.0000       2.630686        71.5846 
 167   0.0000       2.666065        72.5473 
 168   0.0000       2.677569        72.8604 
 169   0.0000       2.709375        73.7258 
 170   0.0000       2.724095        74.1264 
 171   0.0000       2.771296        75.4108 
 172   0.0000       2.798586        76.1534 
 173   0.0000       2.832929        77.0879 
 174   0.0000       2.868223        78.0483 
 175   0.0000       2.930158        79.7337 
 176   0.0000       3.027921        82.3939 
 177   0.0000       3.080978        83.8377 
 178   0.0000       3.171485        86.3005 
 179   0.0000       3.248779        88.4038 
 180   0.0000       3.284697        89.3811 
 181   0.0000       3.410310        92.7993 
 182   0.0000       3.431734        93.3822 
 183   0.0000       3.473212        94.5109 
 184   0.0000       3.492671        95.0404 
-------
TIMINGS
-------

Total SCF time: 0 days 0 hours 0 min 27 sec 

Total time                  ....      27.160 sec
Sum of individual times     ....      27.047 sec  ( 99.6%)

Fock matrix formation       ....      25.332 sec  ( 93.3%)
  Split-RI-J                ....       4.247 sec  ( 16.8% of F)
  Chain of spheres X        ....      19.203 sec  ( 75.8% of F)
  COS-X 1 center corr.      ....       0.000 sec  (  0.0% of F)
  XC integration            ....       1.807 sec  (  7.1% of F)
    Basis function eval.    ....       0.617 sec  ( 34.1% of XC)
    Density eval.           ....       0.280 sec  ( 15.5% of XC)
    XC-Functional eval.     ....       0.069 sec  (  3.8% of XC)
    XC-Potential eval.      ....       0.547 sec  ( 30.3% of XC)
Diagonalization             ....       0.068 sec  (  0.2%)
Density matrix formation    ....       0.042 sec  (  0.2%)
Population analysis         ....       0.000 sec  (  0.0%)
Initial guess               ....       0.285 sec  (  1.0%)
Orbital Transformation      ....       0.000 sec  (  0.0%)
Orbital Orthonormalization  ....       0.000 sec  (  0.0%)
DIIS solution               ....       0.022 sec  (  0.1%)
SOSCF solution              ....       0.137 sec  (  0.5%)
Grid generation             ....       1.161 sec  (  4.3%)


-------------------------------------------------------------------------------
                          DFT DISPERSION CORRECTION                            
                                                                               
                              DFTD3 V3.1  Rev 1                                
                          USING Becke-Johnson damping                          
-------------------------------------------------------------------------------
The B3LYP functional is recognized
Active option DFTDOPT                   ...         4   

molecular C6(AA) [au] = 3637.254978 


            DFT-D V3
 parameters
 s6 scaling factor         :     1.0000 
 a1 scaling factor         :     0.3981 
 s8 scaling factor         :     1.9889 
 a2 scaling factor         :     4.4211 
 ad hoc parameters k1-k3   :    16.0000     1.3333    -4.0000 

 Edisp/kcal,au: -17.904031499704  -0.028531887294 
 E6   /kcal   :  -8.787336521 
 E8   /kcal   :  -9.116694979 
 % E8         :  50.919788535 

-------------------------   ----------------
Dispersion correction           -0.028531887
-------------------------   ----------------


-------------------------   --------------------
FINAL SINGLE POINT ENERGY      -510.396465273876
-------------------------   --------------------



           ************************************************************
           *        Program running with 6 parallel MPI-processes     *
           *              working on a common directory               *
           ************************************************************
------------------------------------------------------------------------------
                         ORCA SCF GRADIENT CALCULATION
------------------------------------------------------------------------------

Gradient of the Kohn-Sham DFT energy:
Kohn-Sham wavefunction type      ... RKS
Hartree-Fock exchange scaling    ...    0.200
Number of operators              ...    1
Number of atoms                  ...   19
Basis set dimensions             ...  185
Integral neglect threshold       ... 2.5e-11
Integral primitive cutoff        ... 2.5e-12

Nuclear repulsion gradient       ... done
One Electron Gradient            ... done
Pre-screening matrix             ... done
RI-J gradient                    ... done
COSX-gradient                    ... done
Exchange-correlation gradient    ... done
Dispersion correction            ... done

------------------
CARTESIAN GRADIENT
------------------

   1   C   :   -0.019819765   -0.006897926   -0.001787551
   2   C   :   -0.041279180    0.031776355   -0.005226686
   3   N   :    0.031872022   -0.000112013    0.004375578
   4   N   :    0.009381455   -0.038612719   -0.000582651
   5   C   :    0.015595064    0.001026909    0.002863629
   6   C   :   -0.003610291   -0.022042399    0.004831973
   7   O   :    0.004533934    0.013364173   -0.004238195
   8   N   :    0.008636167    0.004931961   -0.000274002
   9   C   :   -0.004997049    0.009206387   -0.001494894
  10   O   :    0.008194449   -0.007512570    0.000753252
  11   H   :   -0.000200539    0.004392292   -0.000248874
  12   H   :   -0.002250947   -0.006703374    0.000174968
  13   H   :   -0.001648283    0.000095157    0.001101513
  14   H   :    0.001219635    0.006675241    0.001859224
  15   H   :   -0.001506192    0.005448485    0.000628171
  16   H   :    0.001744904    0.005964968    0.001245652
  17   H   :    0.008488584    0.001325734   -0.000507462
  18   H   :   -0.022242983   -0.002100761    0.000314315
  19   H   :    0.007702854    0.000496013   -0.000990052

Difference to translation invariance:
           :   -0.0001861630    0.0007219105    0.0027979070

Norm of the cartesian gradient     ...    0.0891914965
RMS gradient                       ...    0.0118137023
MAX gradient                       ...    0.0412791801

-------
TIMINGS
-------

Total SCF gradient time            ...        5.522 sec

One electron gradient       ....       0.104 sec  (  1.9%)
Prescreening matrices       ....       0.136 sec  (  2.5%)
RI-J Coulomb gradient       ....       0.670 sec  ( 12.1%)
COSX gradient               ....       2.673 sec  ( 48.4%)
XC gradient                 ....       1.467 sec  ( 26.6%)
------------------------------------------------------------------------------
                         ORCA GEOMETRY RELAXATION STEP
------------------------------------------------------------------------------

Reading the OPT-File                    .... done
Getting information on internals        .... done
Copying old internal coords+grads       .... done
Making the new internal coordinates     .... (new redundants).... done
Validating the new internal coordinates .... (new redundants).... done
Calculating the B-matrix                .... done
Calculating the G,G- and P matrices     .... done
Transforming gradient to internals      .... done
Projecting the internal gradient        .... done
Number of atoms                         ....  19
Number of internal coordinates          ....  79
Current Energy                          ....  -510.396465274 Eh
Current gradient norm                   ....     0.089191496 Eh/bohr
Maximum allowed component of the step   ....  0.300
Current trust radius                    ....  0.300
Evaluating the initial hessian          ....  (Almloef) done
Projecting the Hessian                  .... done
Forming the augmented Hessian           .... done
Diagonalizing the augmented Hessian     .... done
Last element of RFO vector              ....  0.969234261
Lowest eigenvalues of augmented Hessian:
 -0.013826463  0.012846627  0.020532827  0.026604566  0.030270940
Length of the computed step             ....  0.253953152
The final length of the internal step   ....  0.253953152
Converting the step to cartesian space:
 Initial RMS(Int)=    0.0285719619
Transforming coordinates:
 Iter   0:  RMS(Cart)=    0.0725570573 RMS(Int)=    0.9970032950
 Iter   1:  RMS(Cart)=    0.0017366488 RMS(Int)=    0.0010871967
 Iter   2:  RMS(Cart)=    0.0000589545 RMS(Int)=    0.0000345960
 Iter   3:  RMS(Cart)=    0.0000029410 RMS(Int)=    0.0000018559
 Iter   4:  RMS(Cart)=    0.0000001304 RMS(Int)=    0.0000000707
 Iter   5:  RMS(Cart)=    0.0000000076 RMS(Int)=    0.0000000056
done
Storing new coordinates                 .... done

                                .--------------------.
          ----------------------|Geometry convergence|-------------------------
          Item                value                   Tolerance       Converged
          ---------------------------------------------------------------------
          RMS gradient        0.0090067086            0.0020000000      NO
          MAX gradient        0.0396032426            0.0030000000      NO
          RMS step            0.0285719619            0.0200000000      NO
          MAX step            0.1259475623            0.0300000000      NO
          ........................................................
          Max(Bonds)      0.0666      Max(Angles)    3.50
          Max(Dihed)        2.99      Max(Improp)    0.00
          ---------------------------------------------------------------------

The optimization has not yet converged - more geometry cycles are needed


    ---------------------------------------------------------------------------
                         Redundant Internal Coordinates
                            (Angstroem and degrees)

        Definition                    Value    dE/dq     Step     New-Value
    ----------------------------------------------------------------------------
     1. B(C   1,C   0)                1.3430 -0.021891  0.0153    1.3583   
     2. B(N   2,C   1)                1.3743 -0.024965  0.0211    1.3954   
     3. B(N   3,C   1)                1.3724 -0.039603  0.0346    1.4070   
     4. B(C   4,N   3)                1.2895  0.018317 -0.0118    1.2777   
     5. B(O   6,C   5)                1.2233  0.014499 -0.0073    1.2160   
     6. B(N   7,C   5)                1.3656 -0.010937  0.0092    1.3749   
     7. B(C   8,N   7)                1.3644 -0.003900  0.0041    1.3686   
     8. B(O   9,C   8)                1.2251  0.009003 -0.0047    1.2204   
     9. B(H  10,C   0)                1.0857 -0.003889  0.0054    1.0911   
    10. B(H  11,C   0)                1.0799 -0.006683  0.0091    1.0890   
    11. B(H  12,N   2)                1.0129 -0.000429  0.0005    1.0134   
    12. B(H  13,N   2)                1.0232 -0.005300  0.0049    1.0281   
    13. B(H  13,O   9)                1.9093 -0.005109  0.0666    1.9759   
    14. B(H  14,C   4)                1.0998 -0.000395  0.0006    1.1004   
    15. B(H  15,C   4)                1.1029  0.003753 -0.0056    1.0973   
    16. B(H  16,C   5)                1.1020 -0.008579  0.0127    1.1147   
    17. B(H  17,N   3)                1.7891 -0.001616  0.0390    1.8281   
    18. B(H  17,N   7)                1.0208 -0.024067  0.0312    1.0521   
    19. B(H  18,C   8)                1.1016 -0.007739  0.0114    1.1130   
    20. A(H  10,C   0,H  11)          115.00 -0.002759    0.48    115.48   
    21. A(C   1,C   0,H  11)          124.44  0.001936   -0.32    124.12   
    22. A(C   1,C   0,H  10)          120.55  0.000822   -0.15    120.40   
    23. A(C   0,C   1,N   3)          125.37  0.001315    0.01    125.38   
    24. A(C   0,C   1,N   2)          117.24 -0.026352    3.49    120.73   
    25. A(N   2,C   1,N   3)          117.39  0.025038   -3.50    113.88   
    26. A(C   1,N   2,H  13)          111.99 -0.016128    2.22    114.21   
    27. A(H  12,N   2,H  13)          110.76  0.004624   -0.17    110.59   
    28. A(C   1,N   2,H  12)          114.08  0.006083   -0.58    113.50   
    29. A(C   4,N   3,H  17)          117.68  0.012249   -2.45    115.23   
    30. A(C   1,N   3,H  17)          120.31 -0.003396    1.17    121.48   
    31. A(C   1,N   3,C   4)          121.89 -0.008896    1.31    123.20   
    32. A(N   3,C   4,H  15)          118.48  0.003109   -0.56    117.92   
    33. A(N   3,C   4,H  14)          126.34  0.004267   -0.73    125.61   
    34. A(H  14,C   4,H  15)          115.18 -0.007375    1.29    116.47   
    35. A(O   6,C   5,N   7)          124.17  0.003034   -0.39    123.78   
    36. A(N   7,C   5,H  16)          113.70 -0.000837    0.10    113.80   
    37. A(O   6,C   5,H  16)          122.13 -0.002194    0.29    122.41   
    38. A(C   5,N   7,C   8)          125.55  0.006168   -0.95    124.60   
    39. A(C   8,N   7,H  17)          116.97 -0.003607    0.73    117.70   
    40. A(C   5,N   7,H  17)          117.47 -0.002561    0.22    117.69   
    41. A(N   7,C   8,O   9)          123.69  0.001033   -0.16    123.53   
    42. A(O   9,C   8,H  18)          122.41  0.000450   -0.07    122.34   
    43. A(N   7,C   8,H  18)          113.90 -0.001483    0.23    114.13   
    44. A(C   8,O   9,H  13)          116.57 -0.002848   -0.06    116.50   
    45. A(N   2,H  13,O   9)          172.79  0.001629    0.07    172.86   
    46. A(N   3,H  17,N   7)          172.00 -0.001829    0.38    172.38   
    47. D(N   2,C   1,C   0,H  11)    179.87  0.001480   -1.94    177.93   
    48. D(N   2,C   1,C   0,H  10)      0.91  0.001639   -2.12     -1.21   
    49. D(N   3,C   1,C   0,H  11)     -0.07 -0.000021    0.37      0.30   
    50. D(N   3,C   1,C   0,H  10)   -179.03  0.000138    0.19   -178.84   
    51. D(H  12,N   2,C   1,N   3)   -151.22  0.003166   -2.65   -153.87   
    52. D(H  13,N   2,C   1,N   3)    -24.42  0.000775   -1.46    -25.88   
    53. D(H  12,N   2,C   1,C   0)     28.84  0.001800   -0.54     28.30   
    54. D(H  13,N   2,C   1,C   0)    155.64 -0.000592    0.66    156.29   
    55. D(H  17,N   3,C   1,N   2)      4.28 -0.000707    2.42      6.70   
    56. D(H  17,N   3,C   1,C   0)   -175.78  0.000767    0.11   -175.67   
    57. D(C   4,N   3,C   1,N   2)   -179.94 -0.000898    2.84   -177.09   
    58. D(C   4,N   3,C   1,C   0)      0.00  0.000577    0.54      0.54   
    59. D(H  15,C   4,N   3,C   1)   -179.99  0.000746   -0.56   -180.56   
    60. D(H  14,C   4,N   3,H  17)    176.08 -0.000476    0.34    176.42   
    61. D(H  14,C   4,N   3,C   1)      0.19  0.000314   -0.21     -0.02   
    62. D(H  15,C   4,N   3,H  17)     -4.10 -0.000043   -0.01     -4.11   
    63. D(H  17,N   7,C   5,H  16)    179.39  0.000350   -0.38    179.01   
    64. D(H  17,N   7,C   5,O   6)     -0.88  0.001138   -1.40     -2.28   
    65. D(C   8,N   7,C   5,H  16)      0.26  0.000379   -0.57     -0.31   
    66. D(C   8,N   7,C   5,O   6)   -180.00  0.001167   -1.59   -181.59   
    67. D(H  18,C   8,N   7,H  17)   -179.21 -0.000028    0.25   -178.96   
    68. D(H  18,C   8,N   7,C   5)     -0.08 -0.000049    0.44      0.35   
    69. D(O   9,C   8,N   7,H  17)      0.90  0.000412    0.49      1.39   
    70. D(O   9,C   8,N   7,C   5)   -179.98  0.000391    0.68   -179.30   
    71. D(H  13,O   9,C   8,H  18)    172.16 -0.000797    0.69    172.85   
    72. D(H  13,O   9,C   8,N   7)     -7.95 -0.001276    0.43     -7.52   
    73. D(N   2,H  13,O   9,C   8)   -117.94 -0.001980    0.68   -117.26   
    74. D(O   9,H  13,N   2,H  12)    -80.99 -0.001824    0.48    -80.51   
    75. D(O   9,H  13,N   2,C   1)    150.44 -0.000792   -0.40    150.04   
    76. D(N   7,H  17,N   3,C   4)    -66.19  0.003080   -2.99    -69.18   
    77. D(N   7,H  17,N   3,C   1)    109.77  0.002052   -2.44    107.34   
    78. D(N   3,H  17,N   7,C   8)    -95.52  0.002904   -0.23    -95.75   
    79. D(N   3,H  17,N   7,C   5)     85.29  0.002843   -0.39     84.90   
    ----------------------------------------------------------------------------

         *************************************************************
         *                GEOMETRY OPTIMIZATION CYCLE   2            *
         *************************************************************
---------------------------------
CARTESIAN COORDINATES (ANGSTROEM)
---------------------------------
  C      3.148545   -0.743537    0.099802
  C      1.798693   -0.693739   -0.043125
  N      1.061876   -1.857954   -0.264395
  N      1.021872    0.479375   -0.037236
  C      1.520724    1.648131    0.096118
  C     -2.505750    1.614658   -0.199691
  O     -1.939706    2.672179   -0.399318
  N     -1.851608    0.416726   -0.034342
  C     -2.469220   -0.777337    0.221704
  O     -1.867452   -1.827596    0.377124
  H      3.672668   -1.699856    0.063319
  H      3.780491    0.131979    0.241251
  H      1.489957   -2.687757    0.129608
  H      0.075044   -1.792143    0.016635
  H      2.589627    1.878146    0.219868
  H      0.834905    2.504574    0.079149
  H     -3.614279    1.537637   -0.111900
  H     -0.803137    0.415989   -0.120979
  H     -3.578548   -0.711875    0.283506

----------------------------
CARTESIAN COORDINATES (A.U.)
----------------------------
  NO LB      ZA    FRAG     MASS         X           Y           Z
   0 C     6.0000    0    12.011    5.949889   -1.405082    0.188598
   1 C     6.0000    0    12.011    3.399036   -1.310977   -0.081494
   2 N     7.0000    0    14.007    2.006655   -3.511025   -0.499633
   3 N     7.0000    0    14.007    1.931058    0.905887   -0.070365
   4 C     6.0000    0    12.011    2.873751    3.114517    0.181637
   5 C     6.0000    0    12.011   -4.735182    3.051261   -0.377362
   6 O     8.0000    0    15.999   -3.665513    5.049687   -0.754601
   7 N     7.0000    0    14.007   -3.499033    0.787498   -0.064897
   8 C     6.0000    0    12.011   -4.666150   -1.468955    0.418960
   9 O     8.0000    0    15.999   -3.528974   -3.453656    0.712662
  10 H     1.0000    0     1.008    6.940336   -3.212263    0.119656
  11 H     1.0000    0     1.008    7.144093    0.249403    0.455899
  12 H     1.0000    0     1.008    2.815610   -5.079125    0.244924
  13 H     1.0000    0     1.008    0.141813   -3.386659    0.031435
  14 H     1.0000    0     1.008    4.893686    3.549182    0.415489
  15 H     1.0000    0     1.008    1.577742    4.732960    0.149571
  16 H     1.0000    0     1.008   -6.829998    2.905713   -0.211460
  17 H     1.0000    0     1.008   -1.517708    0.786105   -0.228617
  18 H     1.0000    0     1.008   -6.762475   -1.345248    0.535748

--------------------------------
INTERNAL COORDINATES (ANGSTROEM)
--------------------------------
 C      0   0   0     0.000000000000     0.00000000     0.00000000
 C      1   0   0     1.358311558701     0.00000000     0.00000000
 N      2   1   0     1.395441188389   120.71892686     0.00000000
 N      2   1   3     1.407011370509   125.36586502   182.43875970
 C      4   2   1     1.277743668089   123.19781826     0.57875906
 C      4   2   1     3.709363732763   141.26546577   183.27207023
 O      6   4   2     1.215980542486    80.25103374   193.55310170
 N      6   4   2     1.374875859404    43.58034914    10.90337972
 C      8   6   4     1.368499451415   124.61221264   175.26996324
 O      9   8   6     1.220378250806   123.51761744   180.69054795
 H      1   2   3     1.091137542002   120.39556644   358.75707891
 H      1   2   3     1.088986302832   124.11703184   177.89597249
 H      3   2   1     1.013441650843   113.48060175    28.30334093
 H      3   2   1     1.028175838615   114.20748521   156.29577542
 H      5   4   2     1.100352392268   125.60560213     0.00000000
 H      5   4   2     1.097328540167   117.92323946   179.44987169
 H      6   4   2     1.114663950633   157.09817262    21.35683446
 H      8   6   4     1.052045248975   117.70199791   354.57940887
 H      9   8   6     1.112974546258   114.13548972     0.34934247

---------------------------
INTERNAL COORDINATES (A.U.)
---------------------------
 C      0   0   0     0.000000000000     0.00000000     0.00000000
 C      1   0   0     2.566836850484     0.00000000     0.00000000
 N      2   1   0     2.637001682048   120.71892686     0.00000000
 N      2   1   3     2.658866157574   125.36586502   182.43875970
 C      4   2   1     2.414585602039   123.19781826     0.57875906
 C      4   2   1     7.009681586022   141.26546577   183.27207023
 O      6   4   2     2.297870209475    80.25103374   193.55310170
 N      6   4   2     2.598138842412    43.58034914    10.90337972
 C      8   6   4     2.586089177596   124.61221264   175.26996324
 O      9   8   6     2.306180673818   123.51761744   180.69054795
 H      1   2   3     2.061951128825   120.39556644   358.75707891
 H      1   2   3     2.057885875944   124.11703184   177.89597249
 H      3   2   1     1.915127172803   113.48060175    28.30334093
 H      3   2   1     1.942970752497   114.20748521   156.29577542
 H      5   4   2     2.079364672191   125.60560213     0.00000000
 H      5   4   2     2.073650419852   117.92323946   179.44987169
 H      6   4   2     2.106409598050   157.09817262    21.35683446
 H      8   6   4     1.988077401055   117.70199791   354.57940887
 H      9   8   6     2.103217086454   114.13548972     0.34934247



           ************************************************************
           *        Program running with 6 parallel MPI-processes     *
           *              working on a common directory               *
           ************************************************************
 One Electron integrals                  ... done
 Pre-screening matrix                    ... done


           ************************************************************
           *        Program running with 6 parallel MPI-processes     *
           *              working on a common directory               *
           ************************************************************

Diagonalization of the overlap matrix:
Smallest eigenvalue                        ... 2.448e-03
Time for diagonalization                   ...    0.009 sec
Threshold for overlap eigenvalues          ... 1.000e-08
Number of eigenvalues below threshold      ... 0
Time for construction of square roots      ...    0.004 sec
Total time needed                          ...    0.013 sec

-------------------
DFT GRID GENERATION
-------------------

General Integration Accuracy     IntAcc      ...  4.340
Radial Grid Type                 RadialGrid  ... Gauss-Chebyshev
Angular Grid (max. acc.)         AngularGrid ... Lebedev-110
Angular grid pruning method      GridPruning ... 3 (G Style)
Weight generation scheme         WeightScheme... Becke
Basis function cutoff            BFCut       ...    1.0000e-11
Integration weight cutoff        WCut        ...    1.0000e-14
Grids for H and He will be reduced by one unit

# of grid points (after initial pruning)     ...  23964 (   0.0 sec)
# of grid points (after weights+screening)   ...  22278 (   0.0 sec)
nearest neighbour list constructed           ...    0.0 sec
Grid point re-assignment to atoms done       ...    0.0 sec
Grid point division into batches done        ...    0.0 sec
Reduced shell lists constructed in    0.1 sec

Total number of grid points                  ...    22278
Total number of batches                      ...      357
Average number of points per batch           ...       62
Average number of grid points per atom       ...     1173
Average number of shells per batch           ...    63.89 (73.43%)
Average number of basis functions per batch  ...   131.33 (70.99%)
Average number of large shells per batch     ...    48.69 (76.21%)
Average number of large basis fcns per batch ...    99.64 (75.87%)
Maximum spatial batch extension              ...   9.93,  8.56, 18.80 au
Average spatial batch extension              ...   0.34,  0.35,  0.54 au

Time for grid setup =    0.130 sec

--------------------
COSX GRID GENERATION
--------------------

General Integration Accuracy     IntAcc      ...  3.340
Radial Grid Type                 RadialGrid  ... Gauss-Chebyshev
Angular Grid (max. acc.)         AngularGrid ... Lebedev-50
Angular grid pruning method      GridPruning ... 3 (G Style)
Weight generation scheme         WeightScheme... Becke
Basis function cutoff            BFCut       ...    1.0000e-11
Integration weight cutoff        WCut        ...    1.0000e-14
Grids for H and He will be reduced by one unit

# of grid points (after initial pruning)     ...   8638 (   0.0 sec)
# of grid points (after weights+screening)   ...   8088 (   0.0 sec)
nearest neighbour list constructed           ...    0.0 sec
Grid point re-assignment to atoms done       ...    0.0 sec
Grid point division into batches done        ...    0.0 sec
Reduced shell lists constructed in    0.0 sec

Total number of grid points                  ...     8088
Total number of batches                      ...      136
Average number of points per batch           ...       59
Average number of grid points per atom       ...      426
Average number of shells per batch           ...    65.25 (75.00%)
Average number of basis functions per batch  ...   134.83 (72.88%)
Average number of large shells per batch     ...    49.71 (76.18%)
Average number of large basis fcns per batch ...   100.96 (74.88%)
Maximum spatial batch extension              ...   5.81,  5.73, 16.81 au
Average spatial batch extension              ...   0.40,  0.44,  0.78 au

Overlap Fitting                  UseSFitting ... on
Constructing numerical overlap ... done (      0.0 sec)
Inverting numerical overlap    ... done (      0.0 sec)
Obtaining analytic overlap     ... done (      0.0 sec)
Final contraction and storage  ... done (      0.0 sec)


General Integration Accuracy     IntAcc      ...  3.670
Radial Grid Type                 RadialGrid  ... Gauss-Chebyshev
Angular Grid (max. acc.)         AngularGrid ... Lebedev-50
Angular grid pruning method      GridPruning ... 3 (G Style)
Weight generation scheme         WeightScheme... Becke
Basis function cutoff            BFCut       ...    1.0000e-11
Integration weight cutoff        WCut        ...    1.0000e-14
Grids for H and He will be reduced by one unit

# of grid points (after initial pruning)     ...  11032 (   0.0 sec)
# of grid points (after weights+screening)   ...  10303 (   0.0 sec)
nearest neighbour list constructed           ...    0.0 sec
Grid point re-assignment to atoms done       ...    0.0 sec
Grid point division into batches done        ...    0.0 sec
Reduced shell lists constructed in    0.0 sec

Total number of grid points                  ...    10303
Total number of batches                      ...      172
Average number of points per batch           ...       59
Average number of grid points per atom       ...      542
Average number of shells per batch           ...    64.53 (74.18%)
Average number of basis functions per batch  ...   133.40 (72.11%)
Average number of large shells per batch     ...    48.50 (75.15%)
Average number of large basis fcns per batch ...    99.23 (74.39%)
Maximum spatial batch extension              ...   7.47,  7.11, 16.47 au
Average spatial batch extension              ...   0.39,  0.40,  0.67 au

Overlap Fitting                  UseSFitting ... on
Constructing numerical overlap ... done (      0.0 sec)
Inverting numerical overlap    ... done (      0.0 sec)
Obtaining analytic overlap     ... done (      0.0 sec)
Final contraction and storage  ... done (      0.0 sec)


General Integration Accuracy     IntAcc      ...  4.010
Radial Grid Type                 RadialGrid  ... Gauss-Chebyshev
Angular Grid (max. acc.)         AngularGrid ... Lebedev-110
Angular grid pruning method      GridPruning ... 3 (G Style)
Weight generation scheme         WeightScheme... Becke
Basis function cutoff            BFCut       ...    1.0000e-11
Integration weight cutoff        WCut        ...    1.0000e-14
Grids for H and He will be reduced by one unit

# of grid points (after initial pruning)     ...  20600 (   0.0 sec)
# of grid points (after weights+screening)   ...  19186 (   0.0 sec)
nearest neighbour list constructed           ...    0.0 sec
Grid point re-assignment to atoms done       ...    0.0 sec
Grid point division into batches done        ...    0.0 sec
Reduced shell lists constructed in    0.1 sec

Total number of grid points                  ...    19186
Total number of batches                      ...      309
Average number of points per batch           ...       62
Average number of grid points per atom       ...     1010
Average number of shells per batch           ...    63.77 (73.30%)
Average number of basis functions per batch  ...   131.17 (70.90%)
Average number of large shells per batch     ...    48.66 (76.30%)
Average number of large basis fcns per batch ...    99.53 (75.88%)
Maximum spatial batch extension              ...   9.48,  9.16, 17.74 au
Average spatial batch extension              ...   0.36,  0.35,  0.60 au

Overlap Fitting                  UseSFitting ... on
Constructing numerical overlap ... done (      0.0 sec)
Inverting numerical overlap    ... done (      0.0 sec)
[...]
Grids for H and He will be reduced by one unit

# of grid points (after initial pruning)     ...  20600 (   0.0 sec)
# of grid points (after weights+screening)   ...  19187 (   0.0 sec)
nearest neighbour list constructed           ...    0.0 sec
Grid point re-assignment to atoms done       ...    0.0 sec
Grid point division into batches done        ...    0.0 sec
Reduced shell lists constructed in    0.1 sec

Total number of grid points                  ...    19187
Total number of batches                      ...      309
Average number of points per batch           ...       62
Average number of grid points per atom       ...     1010
Average number of shells per batch           ...    64.42 (74.04%)
Average number of basis functions per batch  ...   132.60 (71.68%)
Average number of large shells per batch     ...    49.11 (76.24%)
Average number of large basis fcns per batch ...   100.62 (75.88%)
Maximum spatial batch extension              ...   9.70,  9.00, 17.28 au
Average spatial batch extension              ...   0.39,  0.36,  0.49 au

Overlap Fitting                  UseSFitting ... on
Constructing numerical overlap ... done (      0.0 sec)
Inverting numerical overlap    ... done (      0.0 sec)
Obtaining analytic overlap     ... done (      0.0 sec)
Final contraction and storage  ... done (      0.0 sec)

Time for X-Grid setup             =    0.359 sec
--------------
SCF ITERATIONS
--------------
ITER       Energy         Delta-E        Max-DP      RMS-DP      [F,P]     Damp
               ***  Starting incremental Fock matrix formation  ***
                      *** Initiating the SOSCF procedure ***
                      *** Re-Reading the Fockian *** 
                      *** Removing any level shift *** 
ITER      Energy       Delta-E        Grad      Rot      Max-DP    RMS-DP
  0   -510.38271457 -510.3827145737  0.001205  0.001205  0.005062  0.000113
               *** Restarting incremental Fock matrix formation ***
  1   -510.38289498  -0.0001804041  0.000748  0.003200  0.001707  0.000062
  2   -510.38291839  -0.0000234164  0.000333  0.001845  0.001456  0.000044
  3   -510.38291471   0.0000036879  0.000478  0.000971  0.000833  0.000027
  4   -510.38292247  -0.0000077679  0.000061  0.000258  0.000268  0.000007
  5   -510.38292223   0.0000002406  0.000090  0.000201  0.000187  0.000005
  6   -510.38292263  -0.0000003967  0.000016  0.000044  0.000100  0.000002
  7   -510.38292262   0.0000000121  0.000027  0.000028  0.000065  0.000001
  8   -510.38292264  -0.0000000224  0.000003  0.000010  0.000020  0.000000
  9   -510.38292264  -0.0000000021  0.000007  0.000007  0.000013  0.000000
                  ***Gradient check signals convergence***
              ***Rediagonalizing the Fockian in SOSCF/NRSCF***

               *****************************************************
               *                     SUCCESS                       *
               *           SCF CONVERGED AFTER  10 CYCLES          *
               *****************************************************

Setting up the final grid:

General Integration Accuracy     IntAcc      ...  4.670
Radial Grid Type                 RadialGrid  ... Gauss-Chebyshev
Angular Grid (max. acc.)         AngularGrid ... Lebedev-302
Angular grid pruning method      GridPruning ... 3 (G Style)
Weight generation scheme         WeightScheme... Becke
Basis function cutoff            BFCut       ...    1.0000e-11
Integration weight cutoff        WCut        ...    1.0000e-14
Grids for H and He will be reduced by one unit

# of grid points (after initial pruning)     ...  92666 (   0.0 sec)
# of grid points (after weights+screening)   ...  84892 (   0.1 sec)
nearest neighbour list constructed           ...    0.0 sec
Grid point re-assignment to atoms done       ...    0.0 sec
Grid point division into batches done        ...    0.3 sec
Reduced shell lists constructed in    0.4 sec

Total number of grid points                  ...    84892
Total number of batches                      ...     1336
Average number of points per batch           ...       63
Average number of grid points per atom       ...     4468
Average number of shells per batch           ...    61.87 (71.11%)
Average number of basis functions per batch  ...   126.46 (68.35%)
Average number of large shells per batch     ...    46.18 (74.64%)
Average number of large basis fcns per batch ...    94.38 (74.64%)
Maximum spatial batch extension              ...  11.19,  8.41, 13.27 au
Average spatial batch extension              ...   0.23,  0.22,  0.25 au

Final grid set up in    0.6 sec
Final integration                            ... done (   0.4 sec)
Change in XC energy                          ...    -0.000052913
Integrated number of electrons               ...    76.000001271
Previous integrated no of electrons          ...    76.002242025
Old exchange energy                            =    -13.064025493 Eh
New exchange energy                            =    -13.063294901 Eh
Exchange energy change after final integration =      0.000730592 Eh
Total energy after final integration           =   -510.382244963 Eh
Final COS-X integration done in                =     2.451 sec

----------------
TOTAL SCF ENERGY
----------------

Total Energy       :         -510.38224496 Eh          -13888.20695 eV

Components:
Nuclear Repulsion  :          504.28925550 Eh           13722.40828 eV
Electronic Energy  :        -1014.67150047 Eh          -27610.61522 eV
One Electron Energy:        -1694.08631515 Eh          -46098.43223 eV
Two Electron Energy:          679.41481469 Eh           18487.81701 eV

Virial components:
Potential Energy   :        -1017.67534460 Eh          -27692.35398 eV
Kinetic Energy     :          507.29309964 Eh           13804.14703 eV
Virial Ratio       :            2.00608947


DFT components:
N(Alpha)           :       38.000000635637 electrons
N(Beta)            :       38.000000635637 electrons
N(Total)           :       76.000001271274 electrons
E(X)               :      -51.970429779427 Eh       
E(C)               :       -3.060975343520 Eh       
E(XC)              :      -55.031405122947 Eh       

---------------
SCF CONVERGENCE
---------------

  Last Energy change         ...    6.3392e-10  Tolerance :   1.0000e-08
  Last MAX-Density change    ...    3.9868e-13  Tolerance :   1.0000e-07
  Last RMS-Density change    ...    2.5592e-15  Tolerance :   5.0000e-09
  Last Orbital Gradient      ...    3.4561e-07  Tolerance :   1.0000e-05
  Last Orbital Rotation      ...    1.0259e-06  Tolerance :   1.0000e-05

             **** THE GBW FILE WAS UPDATED (AT-v/e/frag_17_c00001.gbw) ****
             **** DENSITY FILE WAS UPDATED (AT-v/e/frag_17_c00001.scfp.tmp) ****
             **** ENERGY FILE WAS UPDATED (AT-v/e/frag_17_c00001.en.tmp) ****
----------------
ORBITAL ENERGIES
----------------

  NO   OCC          E(Eh)            E(eV) 
   0   2.0000     -19.144790      -520.9562 
   1   2.0000     -19.140314      -520.8344 
   2   2.0000     -14.374812      -391.1585 
   3   2.0000     -14.357702      -390.6929 
   4   2.0000     -14.323215      -389.7545 
   5   2.0000     -10.315014      -280.6858 
   6   2.0000     -10.311417      -280.5879 
   7   2.0000     -10.250584      -278.9326 
   8   2.0000     -10.249280      -278.8971 
   9   2.0000     -10.163944      -276.5750 
  10   2.0000      -1.071118       -29.1466 
  11   2.0000      -1.055996       -28.7351 
  12   2.0000      -0.964031       -26.2326 
  13   2.0000      -0.940356       -25.5884 
  14   2.0000      -0.886651       -24.1270 
  15   2.0000      -0.730269       -19.8716 
  16   2.0000      -0.665702       -18.1147 
  17   2.0000      -0.659789       -17.9538 
  18   2.0000      -0.640985       -17.4421 
  19   2.0000      -0.553288       -15.0557 
  20   2.0000      -0.537100       -14.6152 
  21   2.0000      -0.518747       -14.1158 
  22   2.0000      -0.499860       -13.6019 
  23   2.0000      -0.485446       -13.2097 
  24   2.0000      -0.457294       -12.4436 
  25   2.0000      -0.452203       -12.3051 
  26   2.0000      -0.442219       -12.0334 
  27   2.0000      -0.439648       -11.9634 
  28   2.0000      -0.426230       -11.5983 
  29   2.0000      -0.394806       -10.7432 
  30   2.0000      -0.393779       -10.7153 
  31   2.0000      -0.374993       -10.2041 
  32   2.0000      -0.321230        -8.7411 
  33   2.0000      -0.302290        -8.2257 
  34   2.0000      -0.291135        -7.9222 
  35   2.0000      -0.280865        -7.6427 
  36   2.0000      -0.268899        -7.3171 
  37   2.0000      -0.205285        -5.5861 
  38   0.0000      -0.047128        -1.2824 
  39   0.0000      -0.036458        -0.9921 
  40   0.0000       0.028718         0.7815 
  41   0.0000       0.056669         1.5420 
  42   0.0000       0.066735         1.8159 
  43   0.0000       0.075392         2.0515 
  44   0.0000       0.087227         2.3736 
  45   0.0000       0.113776         3.0960 
  46   0.0000       0.128020         3.4836 
  47   0.0000       0.128751         3.5035 
  48   0.0000       0.137593         3.7441 
  49   0.0000       0.176162         4.7936 
  50   0.0000       0.186177         5.0661 
  51   0.0000       0.215799         5.8722 
  52   0.0000       0.247825         6.7437 
  53   0.0000       0.263663         7.1746 
  54   0.0000       0.296250         8.0614 
  55   0.0000       0.301169         8.1952 
  56   0.0000       0.338001         9.1975 
  57   0.0000       0.366141         9.9632 
  58   0.0000       0.371419        10.1068 
  59   0.0000       0.407044        11.0762 
  60   0.0000       0.427701        11.6383 
  61   0.0000       0.436713        11.8836 
  62   0.0000       0.462174        12.5764 
  63   0.0000       0.470045        12.7906 
  64   0.0000       0.483177        13.1479 
  65   0.0000       0.502195        13.6654 
  66   0.0000       0.511274        13.9125 
  67   0.0000       0.516902        14.0656 
  68   0.0000       0.520529        14.1643 
  69   0.0000       0.536449        14.5975 
  70   0.0000       0.553373        15.0581 
  71   0.0000       0.585322        15.9274 
  72   0.0000       0.593615        16.1531 
  73   0.0000       0.604125        16.4391 
  74   0.0000       0.623163        16.9571 
  75   0.0000       0.635258        17.2863 
  76   0.0000       0.636118        17.3097 
  77   0.0000       0.652602        17.7582 
  78   0.0000       0.668439        18.1892 
  79   0.0000       0.670752        18.2521 
  80   0.0000       0.691038        18.8041 
  81   0.0000       0.712366        19.3845 
  82   0.0000       0.757694        20.6179 
  83   0.0000       0.776299        21.1242 
  84   0.0000       0.789587        21.4857 
  85   0.0000       0.804627        21.8950 
  86   0.0000       0.832927        22.6651 
  87   0.0000       0.854402        23.2495 
  88   0.0000       0.869479        23.6597 
  89   0.0000       0.887858        24.1599 
  90   0.0000       0.904600        24.6154 
  91   0.0000       0.911492        24.8030 
  92   0.0000       0.923778        25.1373 
  93   0.0000       0.935072        25.4446 
  94   0.0000       0.950565        25.8662 
  95   0.0000       0.970801        26.4168 
  96   0.0000       0.996287        27.1104 
  97   0.0000       1.010421        27.4950 
  98   0.0000       1.019225        27.7345 
  99   0.0000       1.039468        28.2854 
 100   0.0000       1.045899        28.4604 
 101   0.0000       1.083682        29.4885 
 102   0.0000       1.094597        29.7855 
 103   0.0000       1.111510        30.2457 
 104   0.0000       1.128209        30.7001 
 105   0.0000       1.154952        31.4278 
 106   0.0000       1.183899        32.2155 
 107   0.0000       1.223872        33.3033 
 108   0.0000       1.230807        33.4920 
 109   0.0000       1.251740        34.0616 
 110   0.0000       1.285831        34.9892 
 111   0.0000       1.292197        35.1625 
 112   0.0000       1.333315        36.2814 
 113   0.0000       1.347291        36.6617 
 114   0.0000       1.372664        37.3521 
 115   0.0000       1.384299        37.6687 
 116   0.0000       1.435867        39.0719 
 117   0.0000       1.467740        39.9392 
 118   0.0000       1.470660        40.0187 
 119   0.0000       1.480815        40.2950 
 120   0.0000       1.503735        40.9187 
 121   0.0000       1.521125        41.3919 
 122   0.0000       1.549299        42.1586 
 123   0.0000       1.552581        42.2479 
 124   0.0000       1.581602        43.0376 
 125   0.0000       1.588599        43.2280 
 126   0.0000       1.606363        43.7114 
 127   0.0000       1.626537        44.2603 
 128   0.0000       1.632384        44.4194 
 129   0.0000       1.664890        45.3040 
 130   0.0000       1.673525        45.5389 
 131   0.0000       1.691594        46.0306 
 132   0.0000       1.692035        46.0426 
 133   0.0000       1.713453        46.6254 
 134   0.0000       1.728017        47.0217 
 135   0.0000       1.743721        47.4491 
 136   0.0000       1.753696        47.7205 
 137   0.0000       1.781785        48.4848 
 138   0.0000       1.804320        49.0980 
 139   0.0000       1.863305        50.7031 
 140   0.0000       1.867017        50.8041 
 141   0.0000       1.886507        51.3345 
 142   0.0000       1.891738        51.4768 
 143   0.0000       1.914917        52.1075 
 144   0.0000       1.943874        52.8955 
 145   0.0000       1.972138        53.6646 
 146   0.0000       2.033750        55.3412 
 147   0.0000       2.079723        56.5921 
 148   0.0000       2.083833        56.7040 
 149   0.0000       2.119991        57.6879 
 150   0.0000       2.192407        59.6584 
 151   0.0000       2.204139        59.9777 
 152   0.0000       2.227023        60.6004 
 153   0.0000       2.240921        60.9786 
 154   0.0000       2.269851        61.7658 
 155   0.0000       2.287077        62.2345 
 156   0.0000       2.298300        62.5399 
 157   0.0000       2.315057        62.9959 
 158   0.0000       2.348690        63.9111 
 159   0.0000       2.363551        64.3155 
 160   0.0000       2.378299        64.7168 
 161   0.0000       2.454974        66.8032 
 162   0.0000       2.503609        68.1267 
 163   0.0000       2.524303        68.6898 
 164   0.0000       2.547706        69.3266 
 165   0.0000       2.591470        70.5175 
 166   0.0000       2.637001        71.7564 
 167   0.0000       2.655093        72.2488 
 168   0.0000       2.672887        72.7330 
 169   0.0000       2.702327        73.5341 
 170   0.0000       2.724640        74.1412 
 171   0.0000       2.774315        75.4929 
 172   0.0000       2.800008        76.1921 
 173   0.0000       2.818884        76.7057 
 174   0.0000       2.857048        77.7442 
 175   0.0000       2.870841        78.1195 
 176   0.0000       3.037638        82.6583 
 177   0.0000       3.085027        83.9479 
 178   0.0000       3.129747        85.1647 
 179   0.0000       3.181034        86.5603 
 180   0.0000       3.217136        87.5427 
 181   0.0000       3.411014        92.8184 
 182   0.0000       3.439171        93.5846 
 183   0.0000       3.478200        94.6466 
 184   0.0000       3.492690        95.0409 
-------
TIMINGS
-------

Total SCF time: 0 days 0 hours 0 min 19 sec 

Total time                  ....      19.089 sec
Sum of individual times     ....      19.003 sec  ( 99.5%)

Fock matrix formation       ....      17.707 sec  ( 92.8%)
  Split-RI-J                ....       2.921 sec  ( 16.5% of F)
  Chain of spheres X        ....      13.463 sec  ( 76.0% of F)
  COS-X 1 center corr.      ....       0.000 sec  (  0.0% of F)
  XC integration            ....       1.278 sec  (  7.2% of F)
    Basis function eval.    ....       0.441 sec  ( 34.5% of XC)
    Density eval.           ....       0.194 sec  ( 15.2% of XC)
    XC-Functional eval.     ....       0.051 sec  (  4.0% of XC)
    XC-Potential eval.      ....       0.359 sec  ( 28.1% of XC)
Diagonalization             ....       0.010 sec  (  0.1%)
Density matrix formation    ....       0.029 sec  (  0.2%)
Population analysis         ....       0.000 sec  (  0.0%)
Initial guess               ....       0.010 sec  (  0.1%)
Orbital Transformation      ....       0.000 sec  (  0.0%)
Orbital Orthonormalization  ....       0.007 sec  (  0.0%)
DIIS solution               ....       0.002 sec  (  0.0%)
SOSCF solution              ....       0.118 sec  (  0.6%)
Grid generation             ....       1.125 sec  (  5.9%)


-------------------------------------------------------------------------------
                          DFT DISPERSION CORRECTION                            
                                                                               
                              DFTD3 V3.1  Rev 1                                
                          USING Becke-Johnson damping                          
-------------------------------------------------------------------------------
The B3LYP functional is recognized
Active option DFTDOPT                   ...         4   

molecular C6(AA) [au] = 3640.357112 


            DFT-D V3
 parameters
 s6 scaling factor         :     1.0000 
 a1 scaling factor         :     0.3981 
 s8 scaling factor         :     1.9889 
 a2 scaling factor         :     4.4211 
 ad hoc parameters k1-k3   :    16.0000     1.3333    -4.0000 

 Edisp/kcal,au: -17.626735887039  -0.028089988654 
 E6   /kcal   :  -8.655088298 
 E8   /kcal   :  -8.971647589 
 % E8         :  50.897952103 

-------------------------   ----------------
Dispersion correction           -0.028089989
-------------------------   ----------------


-------------------------   --------------------
FINAL SINGLE POINT ENERGY      -510.410334951968
-------------------------   --------------------

                                *** OPTIMIZATION RUN DONE ***

                            ***************************************
                            *     ORCA property calculations      *
                            ***************************************

                                    ---------------------
                                    Active property flags
                                    ---------------------
   (+) Dipole Moment


------------------------------------------------------------------------------
                       ORCA ELECTRIC PROPERTIES CALCULATION
------------------------------------------------------------------------------

Dipole Moment Calculation                       ... on
Quadrupole Moment Calculation                   ... off
Polarizability Calculation                      ... off
GBWName                                         ... AT-v/e/frag_17_c00001.gbw
Electron density file                           ... AT-v/e/frag_17_c00001.scfp.tmp
The origin for moment calculation is the CENTER OF MASS  = (-0.445670,  0.173060  0.024474)

-------------
DIPOLE MOMENT
-------------
                                X             Y             Z
Electronic contribution:     -6.18814       1.20040      -0.23475
Nuclear contribution   :      6.02271      -1.22398       0.33073
                        -----------------------------------------
Total Dipole Moment    :     -0.16544      -0.02358       0.09598
                        -----------------------------------------
Magnitude (a.u.)       :      0.19271
Magnitude (Debye)      :      0.48984


Timings for individual modules:

Sum of individual times         ...      454.549 sec (=   7.576 min)
GTO integral calculation        ...       12.915 sec (=   0.215 min)   2.8 %
SCF iterations                  ...      353.782 sec (=   5.896 min)  77.8 %
SCF Gradient evaluation         ...       84.981 sec (=   1.416 min)  18.7 %
Geometry relaxation             ...        2.872 sec (=   0.048 min)   0.6 %
                             ****ORCA TERMINATED NORMALLY****
TOTAL RUN TIME: 0 days 0 hours 7 minutes 37 seconds 958 msec
