
                                 *****************
                                 * O   R   C   A *
                                 *****************

           --- An Ab Initio, DFT and Semiempirical electronic structure package ---

                  #######################################################
                  #                        -***-                        #
                  #  Department of molecular theory and spectroscopy    #
                  #              Directorship: Frank Neese              #
                  # Max Planck Institute for Chemical Energy Conversion #
                  #                  D-45470 Muelheim/Ruhr              #
                  #                       Germany                       #
                  #                                                     #
                  #                  All rights reserved                #
                  #                        -***-                        #
                  #######################################################


                         Program Version 4.0.1.2 - RELEASE -


 With contributions from (in alphabetic order):
   Daniel Aravena         : Magnetic Properties
   Michael Atanasov       : Ab Initio Ligand Field Theory
   Ute Becker             : Parallelization
   Martin Brehm           : Molecular dynamics
   Dmytro Bykov           : SCF Hessian
   Vijay G. Chilkuri      : MRCI spin determinant printing
   Dipayan Datta          : RHF DLPNO-CCSD density
   Achintya Kumar Dutta   : EOM-CC, STEOM-CC
   Dmitry Ganyushin       : Spin-Orbit,Spin-Spin,Magnetic field MRCI
   Yang Guo               : DLPNO-NEVPT2, CIM, IAO-localization
   Andreas Hansen         : Spin unrestricted coupled pair/coupled cluster methods
   Lee Huntington         : MR-EOM, pCC
   Robert Izsak           : Overlap fitted RIJCOSX, COSX-SCS-MP3, EOM
   Christian Kollmar      : KDIIS, OOCD, Brueckner-CCSD(T), CCSD density
   Simone Kossmann        : Meta GGA functionals, TD-DFT gradient, OOMP2, MP2 Hessian
   Martin Krupicka        : AUTO-CI
   Dagmar Lenk            : GEPOL surface
   Dimitrios Liakos       : Extrapolation schemes; parallel MDCI
   Dimitrios Manganas     : ROCIS; embedding schemes
   Dimitrios Pantazis     : SARC Basis sets
   Taras Petrenko         : DFT Hessian,TD-DFT gradient, ASA, ECA, R-Raman, ABS, FL, XAS/XES, NRVS
   Peter Pinski           : DLPNO-MP2
   Christoph Reimann      : Effective Core Potentials
   Marius Retegan         : Local ZFS, SOC
   Christoph Riplinger    : Optimizer, TS searches, QM/MM, DLPNO-CCSD(T), (RO)-DLPNO pert. Triples
   Tobias Risthaus        : Range-separated hybrids, TD-DFT gradient, RPA, STAB
   Michael Roemelt        : Restricted open shell CIS
   Masaaki Saitow         : Open-shell DLPNO
   Barbara Sandhoefer     : DKH picture change effects
   Kantharuban Sivalingam : CASSCF convergence, NEVPT2, FIC-MRCI
   Georgi Stoychev        : AutoAux
   Boris Wezisla          : Elementary symmetry handling
   Frank Wennmohs         : Technical directorship


 We gratefully acknowledge several colleagues who have allowed us to
 interface, adapt or use parts of their codes:
   Stefan Grimme, W. Hujo, H. Kruse,             : VdW corrections, initial TS optimization,
                  C. Bannwarth                     DFT functionals, gCP, sTDA/sTD-DF
   Ed Valeev                                     : LibInt (2-el integral package), F12 methods
   Garnet Chan, S. Sharma, J. Yang, R. Olivares  : DMRG
   Ulf Ekstrom                                   : XCFun DFT Library
   Mihaly Kallay                                 : mrcc  (arbitrary order and MRCC methods)
   Andreas Klamt, Michael Diedenhofen            : otool_cosmo (COSMO solvation model)
   Jiri Pittner, Ondrej Demel                    : Mk-CCSD
   Frank Weinhold                                : gennbo (NPA and NBO analysis)
   Christopher J. Cramer and Donald G. Truhlar   : smd solvation model


 Your calculation uses the libint2 library for the computation of 2-el integrals
 For citations please refer to: http://libint.valeyev.net

 This ORCA versions uses:
   CBLAS   interface :  Fast vector & matrix operations
   LAPACKE interface :  Fast linear algebra routines
   SCALAPACK package :  Parallel linear algebra routines


Your calculation utilizes the atom-pairwise dispersion correction
with the Becke-Johnson damping scheme (D3BJ)
Cite in your paper:
S.Grimme, S.Ehrlich, L.Goerigk, J Comput Chem, (2011), 32, 1456–1465 
S.Grimme, J.Antony, S.Ehrlich and H.Krieg, J.Chem.Phys., 132, (2010), 154104 
   

Your calculation utilizes the basis: cc-pVDZ 
       H, B-Ne : Obtained from the ccRepo (grant-hill.group.shef.ac.uk/ccrepo) Feb. 2017
                 T. H. Dunning, Jr., J. Chem. Phys. 90, 1007 (1989)
            He : Obtained from the ccRepo (grant-hill.group.shef.ac.uk/ccrepo) Feb. 2017
                 D. E. Woon, T. H. Dunning, Jr., J. Chem. Phys. 100, 2975 (1994)
  Li-Be, Na-Mg : Obtained from the ccRepo (grant-hill.group.shef.ac.uk/ccrepo) Feb. 2017
                 B. P. Prascher, D. E. Woon, K. A. Peterson, T. H. Dunning, Jr., A. K. Wilson, Theor. Chem. Acc. 128, 69 (2011)
         Al-Ar : Obtained from the ccRepo (grant-hill.group.shef.ac.uk/ccrepo) Feb. 2017
                 D. E. Woon, T. H. Dunning, Jr., J. Chem. Phys. 98, 1358 (1993)
            Ca : Obtained from the Peterson Research Group Website (tyr0.chem.wsu.edu/~kipeters) Feb. 2017
                 J. Koput, K. A. Peterson, J. Phys. Chem. 106, 9595 (2002)
         Sc-Zn : Obtained from the ccRepo (grant-hill.group.shef.ac.uk/ccrepo) Feb. 2017
                 N. B. Balabanov, K. A. Peterson, J. Chem. Phys. 123, 064107 (2005)
                 N. B. Balabanov, K. A. Peterson, J. Chem. Phys. 125, 074110 (2006)
         Ga-Kr : Obtained from the ccRepo (grant-hill.group.shef.ac.uk/ccrepo) Feb. 2017
                 A. K. Wilson, D. E. Woon, K. A. Peterson, T. H. Dunning, Jr., J. Chem. Phys. 110, 7667 (1999)

Your calculation utilizes the auxiliary basis: def2/J
   F. Weigend, Phys. Chem. Chem. Phys. 8, 1057 (2006).

================================================================================
                                        WARNINGS
                       Please study these warnings very carefully!
================================================================================

Warning: TCutStore was < 0. Adjusted to Thresh (uncritical)

WARNING: Geometry Optimization
  ===> : Switching off AutoStart
         For restart on a previous wavefunction, please use MOREAD

INFO   : the flag for use of LIBINT has been found!

================================================================================
                                       INPUT FILE
================================================================================
NAME = g8raf/frag_01_c00001.com
|  1> %pal nprocs 6 end
|  2> %maxcore 1000
|  3> ! b3lyp TIGHTSCF nopop D3BJ
|  4> ! cc-pvdz def2/J RIJCOSX
|  5> ! Opt
|  6> 
|  7> %geom
|  8> maxiter 60
|  9> TolE 1e-4
| 10> TolRMSG 2e-3
| 11> TolMaxG 3e-3
| 12> TolRMSD 2e-2
| 13> TolMaxD 3e-2
| 14> end
| 15> 
| 16> *xyz 0 1
| 17> C -4.6589 -2.1196 0.003
| 18> H -4.144 -1.1564 0.0015
| 19> H -4.3768 -2.6846 -0.8882
| 20> H -5.7387 -1.9552 0.0032
| 21> H -4.3761 -2.6822 0.8954
| 22> *
| 23> 
| 24> 
| 25>                          ****END OF INPUT****
================================================================================

                       *****************************
                       * Geometry Optimization Run *
                       *****************************

Geometry optimization settings:
Update method            Update   .... BFGS
Choice of coordinates    CoordSys .... Redundant Internals
Initial Hessian          InHess   .... Almoef's Model

Convergence Tolerances:
Energy Change            TolE     ....  1.0000e-04 Eh
Max. Gradient            TolMAXG  ....  3.0000e-03 Eh/bohr
RMS Gradient             TolRMSG  ....  2.0000e-03 Eh/bohr
Max. Displacement        TolMAXD  ....  3.0000e-02 bohr
RMS Displacement         TolRMSD  ....  2.0000e-02 bohr

------------------------------------------------------------------------------
                        ORCA OPTIMIZATION COORDINATE SETUP
------------------------------------------------------------------------------

The optimization will be done in new redundant internal coordinates
Making redundant internal coordinates   ...  (new redundants) done
Evaluating the initial hessian          ...  (Almloef) done
Evaluating the coordinates              ...  done
Calculating the B-matrix                .... done
Calculating the G-matrix                .... done
Diagonalizing the G-matrix              .... done
The first mode is                       ....    1
The number of degrees of freedom        ....    9

    -----------------------------------------------------------------
                    Redundant Internal Coordinates


    -----------------------------------------------------------------
         Definition                    Initial Value    Approx d2E/dq
    -----------------------------------------------------------------
      1. B(H   1,C   0)                  1.0922         0.357215   
      2. B(H   2,C   0)                  1.0923         0.357116   
      3. B(H   3,C   0)                  1.0922         0.357145   
      4. B(H   4,C   0)                  1.0922         0.357219   
      5. A(H   1,C   0,H   3)          109.4709         0.290097   
      6. A(H   2,C   0,H   3)          109.4714         0.290084   
      7. A(H   1,C   0,H   4)          109.4710         0.290106   
      8. A(H   2,C   0,H   4)          109.4716         0.290094   
      9. A(H   3,C   0,H   4)          109.4730         0.290097   
     10. A(H   1,C   0,H   2)          109.4694         0.290093   
    -----------------------------------------------------------------

Number of atoms                         .... 5
Number of degrees of freedom            .... 10

         *************************************************************
         *                GEOMETRY OPTIMIZATION CYCLE   1            *
         *************************************************************
---------------------------------
CARTESIAN COORDINATES (ANGSTROEM)
---------------------------------
  C     -4.658900   -2.119600    0.003000
  H     -4.144000   -1.156400    0.001500
  H     -4.376800   -2.684600   -0.888200
  H     -5.738700   -1.955200    0.003200
  H     -4.376100   -2.682200    0.895400

----------------------------
CARTESIAN COORDINATES (A.U.)
----------------------------
  NO LB      ZA    FRAG     MASS         X           Y           Z
   0 C     6.0000    0    12.011   -8.804045   -4.005464    0.005669
   1 H     1.0000    0     1.008   -7.831025   -2.185279    0.002835
   2 H     1.0000    0     1.008   -8.270953   -5.073159   -1.678455
   3 H     1.0000    0     1.008  -10.844571   -3.694793    0.006047
   4 H     1.0000    0     1.008   -8.269631   -5.068623    1.692061

--------------------------------
INTERNAL COORDINATES (ANGSTROEM)
--------------------------------
 C      0   0   0     0.000000000000     0.00000000     0.00000000
 H      1   0   0     1.092189772887     0.00000000     0.00000000
 H      1   2   0     1.092265009052   109.46940471     0.00000000
 H      1   2   3     1.092243306228   109.47089378   240.00113921
 H      1   2   3     1.092186962017   109.47101974   119.99923080

---------------------------
INTERNAL COORDINATES (A.U.)
---------------------------
 C      0   0   0     0.000000000000     0.00000000     0.00000000
 H      1   0   0     2.063939557027     0.00000000     0.00000000
 H      1   2   0     2.064081732774   109.46940471     0.00000000
 H      1   2   3     2.064040720380   109.47089378   240.00113921
 H      1   2   3     2.063934245252   109.47101974   119.99923080

---------------------
BASIS SET INFORMATION
---------------------
There are 2 groups of distinct atoms

 Group   1 Type C   : 17s4p1d contracted to 3s2p1d pattern {881/31/1}
 Group   2 Type H   : 4s1p contracted to 2s1p pattern {31/1}

Atom   0C    basis set group =>   1
Atom   1H    basis set group =>   2
Atom   2H    basis set group =>   2
Atom   3H    basis set group =>   2
Atom   4H    basis set group =>   2
-------------------------------
AUXILIARY BASIS SET INFORMATION
-------------------------------
There are 2 groups of distinct atoms

 Group   1 Type C   : 12s5p4d2f1g contracted to 6s4p3d1f1g pattern {711111/2111/211/2/1}
 Group   2 Type H   : 5s2p1d contracted to 3s1p1d pattern {311/2/1}

Atom   0C    basis set group =>   1
Atom   1H    basis set group =>   2
Atom   2H    basis set group =>   2
Atom   3H    basis set group =>   2
Atom   4H    basis set group =>   2


           ************************************************************
           *        Program running with 6 parallel MPI-processes     *
           *              working on a common directory               *
           ************************************************************
------------------------------------------------------------------------------
                           ORCA GTO INTEGRAL CALCULATION
                           -- RI-GTO INTEGRALS CHOSEN --
------------------------------------------------------------------------------

                         BASIS SET STATISTICS AND STARTUP INFO

Gaussian basis set:
 # of primitive gaussian shells          ...   42
 # of primitive gaussian functions       ...   62
 # of contracted shells                  ...   18
 # of contracted basis functions         ...   34
 Highest angular momentum                ...    2
 Maximum contraction depth               ...    8
Auxiliary gaussian basis set:
 # of primitive gaussian shells          ...   56
 # of primitive gaussian functions       ...  134
 # of contracted shells                  ...   35
 # of contracted aux-basis functions     ...   93
 Highest angular momentum                ...    4
 Maximum contraction depth               ...    7
Ratio of auxiliary to basis functions    ...  2.74
Integral package used                  ... LIBINT
 One Electron integrals                  ... done
 Ordering auxiliary basis shells         ... done
 Integral threshhold             Thresh  ...  2.500e-11
 Primitive cut-off               TCut    ...  2.500e-12
 Pre-screening matrix                    ... done
 Shell pair data                         ... 
 Ordering of the shell pairs             ... done (   0.000 sec) 171 of 171 pairs
 Determination of significant pairs      ... done (   0.000 sec)
 Creation of shell pair data             ... done (   0.000 sec)
 Storage of shell pair data              ... done (   0.000 sec)
 Shell pair data done in (   0.000 sec)
 Computing two index integrals           ... done
 Cholesky decomposition of the V-matrix  ... done


Timings:
 Total evaluation time                   ...   0.271 sec (  0.005 min)
 One electron matrix time                ...   0.017 sec (  0.000 min) =  6.2%
 Schwartz matrix evaluation time         ...   0.229 sec (  0.004 min) = 84.6%
 Two index repulsion integral time       ...   0.001 sec (  0.000 min) =  0.2%
 Cholesky decomposition of V             ...   0.000 sec (  0.000 min) =  0.2%
 Three index repulsion integral time     ...   0.000 sec (  0.000 min) =  0.0%



           ************************************************************
           *        Program running with 6 parallel MPI-processes     *
           *              working on a common directory               *
           ************************************************************
-------------------------------------------------------------------------------
                                 ORCA SCF
-------------------------------------------------------------------------------

------------
SCF SETTINGS
------------
Hamiltonian:
 Density Functional     Method          .... DFT(GTOs)
 Exchange Functional    Exchange        .... B88
   X-Alpha parameter    XAlpha          ....  0.666667
   Becke's b parameter  XBeta           ....  0.004200
 Correlation Functional Correlation     .... LYP
 LDA part of GGA corr.  LDAOpt          .... VWN-5
 Gradients option       PostSCFGGA      .... off
 Hybrid DFT is turned on
   Fraction HF Exchange ScalHFX         ....  0.200000
   Scaling of DF-GGA-X  ScalDFX         ....  0.720000
   Scaling of DF-GGA-C  ScalDFC         ....  0.810000
   Scaling of DF-LDA-C  ScalLDAC        ....  1.000000
   Perturbative correction              ....  0.000000
   NL short-range parameter             ....  4.800000
 RI-approximation to the Coulomb term is turned on
   Number of auxiliary basis functions  .... 93
   RIJ-COSX (HFX calculated with COS-X)).... on


General Settings:
 Integral files         IntName         .... g8raf/frag_01_c00001
 Hartree-Fock type      HFTyp           .... RHF
 Total Charge           Charge          ....    0
 Multiplicity           Mult            ....    1
 Number of Electrons    NEL             ....   10
 Basis Dimension        Dim             ....   34
 Nuclear Repulsion      ENuc            ....     13.4080654991 Eh

Convergence Acceleration:
 DIIS                   CNVDIIS         .... on
   Start iteration      DIISMaxIt       ....    12
   Startup error        DIISStart       ....  0.200000
   # of expansion vecs  DIISMaxEq       ....     5
   Bias factor          DIISBfac        ....   1.050
   Max. coefficient     DIISMaxC        ....  10.000
 Newton-Raphson         CNVNR           .... off
 SOSCF                  CNVSOSCF        .... on
   Start iteration      SOSCFMaxIt      ....   150
   Startup grad/error   SOSCFStart      ....  0.003300
 Level Shifting         CNVShift        .... on
   Level shift para.    LevelShift      ....    0.2500
   Turn off err/grad.   ShiftErr        ....    0.0010
 Zerner damping         CNVZerner       .... off
 Static damping         CNVDamp         .... on
   Fraction old density DampFac         ....    0.7000
   Max. Damping (<1)    DampMax         ....    0.9800
   Min. Damping (>=0)   DampMin         ....    0.0000
   Turn off err/grad.   DampErr         ....    0.1000
 Fernandez-Rico         CNVRico         .... off

SCF Procedure:
 Maximum # iterations   MaxIter         ....   125
 SCF integral mode      SCFMode         .... Direct
   Integral package                     .... LIBINT
 Reset frequeny         DirectResetFreq ....    20
 Integral Threshold     Thresh          ....  2.500e-11 Eh
 Primitive CutOff       TCut            ....  2.500e-12 Eh

Convergence Tolerance:
 Convergence Check Mode ConvCheckMode   .... Total+1el-Energy
 Convergence forced     ConvForced      .... 0
 Energy Change          TolE            ....  1.000e-08 Eh
 1-El. energy change                    ....  1.000e-05 Eh
 Orbital Gradient       TolG            ....  1.000e-05
 Orbital Rotation angle TolX            ....  1.000e-05
 DIIS Error             TolErr          ....  5.000e-07


Diagonalization of the overlap matrix:
Smallest eigenvalue                        ... 2.321e-02
Time for diagonalization                   ...    0.001 sec
Threshold for overlap eigenvalues          ... 1.000e-08
Number of eigenvalues below threshold      ... 0
Time for construction of square roots      ...    0.000 sec
Total time needed                          ...    0.001 sec

-------------------
DFT GRID GENERATION
-------------------

General Integration Accuracy     IntAcc      ...  4.340
Radial Grid Type                 RadialGrid  ... Gauss-Chebyshev
Angular Grid (max. acc.)         AngularGrid ... Lebedev-110
Angular grid pruning method      GridPruning ... 3 (G Style)
Weight generation scheme         WeightScheme... Becke
Basis function cutoff            BFCut       ...    1.0000e-11
Integration weight cutoff        WCut        ...    1.0000e-14
Grids for H and He will be reduced by one unit

# of grid points (after initial pruning)     ...   4832 (   0.0 sec)
# of grid points (after weights+screening)   ...   4749 (   0.0 sec)
nearest neighbour list constructed           ...    0.0 sec
Grid point re-assignment to atoms done       ...    0.0 sec
Grid point division into batches done        ...    0.0 sec
Reduced shell lists constructed in    0.0 sec

Total number of grid points                  ...     4749
Total number of batches                      ...       77
Average number of points per batch           ...       61
Average number of grid points per atom       ...      950
Average number of shells per batch           ...    15.79 (87.70%)
Average number of basis functions per batch  ...    29.50 (86.76%)
Average number of large shells per batch     ...    15.29 (96.83%)
Average number of large basis fcns per batch ...    28.57 (96.85%)
Maximum spatial batch extension              ...  16.97, 16.75, 23.60 au
Average spatial batch extension              ...   0.75,  0.76,  0.85 au

Time for grid setup =    0.010 sec

------------------------------
INITIAL GUESS: MODEL POTENTIAL
------------------------------
Loading Hartree-Fock densities                     ... done
Calculating cut-offs                               ... done
Setting up the integral package                    ... done
Initializing the effective Hamiltonian             ... done
Starting the Coulomb interaction                   ... done (   0.0 sec)
Reading the grid                                   ... done
Mapping shells                                     ... done
Starting the XC term evaluation                    ... done (   0.0 sec)
  promolecular density results
     # of electrons  =      9.997619294
     EX              =     -6.306023397
     EC              =     -0.288463441
     EX+EC           =     -6.594486838
Transforming the Hamiltonian                       ... done (   0.0 sec)
Diagonalizing the Hamiltonian                      ... done (   0.0 sec)
Back transforming the eigenvectors                 ... done (   0.0 sec)
Now organizing SCF variables                       ... done
                      ------------------
                      INITIAL GUESS DONE (   0.1 sec)
                      ------------------
--------------------
COSX GRID GENERATION
--------------------

General Integration Accuracy     IntAcc      ...  3.340
Radial Grid Type                 RadialGrid  ... Gauss-Chebyshev
Angular Grid (max. acc.)         AngularGrid ... Lebedev-50
Angular grid pruning method      GridPruning ... 3 (G Style)
Weight generation scheme         WeightScheme... Becke
Basis function cutoff            BFCut       ...    1.0000e-11
Integration weight cutoff        WCut        ...    1.0000e-14
Grids for H and He will be reduced by one unit

# of grid points (after initial pruning)     ...   1860 (   0.0 sec)
# of grid points (after weights+screening)   ...   1823 (   0.0 sec)
nearest neighbour list constructed           ...    0.0 sec
Grid point re-assignment to atoms done       ...    0.0 sec
Grid point division into batches done        ...    0.0 sec
Reduced shell lists constructed in    0.0 sec

Total number of grid points                  ...     1823
Total number of batches                      ...       32
Average number of points per batch           ...       56
Average number of grid points per atom       ...      365
Average number of shells per batch           ...    15.43 (85.71%)
Average number of basis functions per batch  ...    29.14 (85.71%)
Average number of large shells per batch     ...    15.29 (99.07%)
Average number of large basis fcns per batch ...    28.71 (98.53%)
Maximum spatial batch extension              ...  14.70, 12.66, 16.61 au
Average spatial batch extension              ...   0.65,  0.65,  0.74 au

Overlap Fitting                  UseSFitting ... on
Constructing numerical overlap ... done (      0.0 sec)
Inverting numerical overlap    ... done (      0.0 sec)
Obtaining analytic overlap     ... done (      0.0 sec)
Final contraction and storage  ... done (      0.0 sec)


General Integration Accuracy     IntAcc      ...  3.670
Radial Grid Type                 RadialGrid  ... Gauss-Chebyshev
Angular Grid (max. acc.)         AngularGrid ... Lebedev-50
Angular grid pruning method      GridPruning ... 3 (G Style)
Weight generation scheme         WeightScheme... Becke
Basis function cutoff            BFCut       ...    1.0000e-11
Integration weight cutoff        WCut        ...    1.0000e-14
Grids for H and He will be reduced by one unit

# of grid points (after initial pruning)     ...   2450 (   0.0 sec)
# of grid points (after weights+screening)   ...   2399 (   0.0 sec)
nearest neighbour list constructed           ...    0.0 sec
Grid point re-assignment to atoms done       ...    0.0 sec
Grid point division into batches done        ...    0.0 sec
Reduced shell lists constructed in    0.0 sec

Total number of grid points                  ...     2399
Total number of batches                      ...       41
Average number of points per batch           ...       58
Average number of grid points per atom       ...      480
Average number of shells per batch           ...    15.75 (87.50%)
Average number of basis functions per batch  ...    29.75 (87.50%)
Average number of large shells per batch     ...    15.50 (98.41%)
Average number of large basis fcns per batch ...    29.25 (98.32%)
Maximum spatial batch extension              ...  16.06, 14.92, 18.41 au
Average spatial batch extension              ...   0.61,  0.58,  0.63 au

Overlap Fitting                  UseSFitting ... on
Constructing numerical overlap ... done (      0.0 sec)
Inverting numerical overlap    ... done (      0.0 sec)
Obtaining analytic overlap     ... done (      0.0 sec)
Final contraction and storage  ... done (      0.0 sec)


General Integration Accuracy     IntAcc      ...  4.010
Radial Grid Type                 RadialGrid  ... Gauss-Chebyshev
Angular Grid (max. acc.)         AngularGrid ... Lebedev-110
Angular grid pruning method      GridPruning ... 3 (G Style)
Weight generation scheme         WeightScheme... Becke
Basis function cutoff            BFCut       ...    1.0000e-11
Integration weight cutoff        WCut        ...    1.0000e-14
Grids for H and He will be reduced by one unit

# of grid points (after initial pruning)     ...   4140 (   0.0 sec)
# of grid points (after weights+screening)   ...   4069 (   0.0 sec)
nearest neighbour list constructed           ...    0.0 sec
Grid point re-assignment to atoms done       ...    0.0 sec
Grid point division into batches done        ...    0.0 sec
Reduced shell lists constructed in    0.0 sec

Total number of grid points                  ...     4069
Total number of batches                      ...       66
Average number of points per batch           ...       61
Average number of grid points per atom       ...      814
Average number of shells per batch           ...    15.92 (88.43%)
Average number of basis functions per batch  ...    29.92 (87.99%)
Average number of large shells per batch     ...    15.50 (97.38%)
Average number of large basis fcns per batch ...    29.00 (96.94%)
Maximum spatial batch extension              ...  16.81, 15.91, 21.93 au
Average spatial batch extension              ...   0.63,  0.65,  0.74 au

Overlap Fitting                  UseSFitting ... on
Constructing numerical overlap ... done (      0.0 sec)
Inverting numerical overlap    ... done (      0.0 sec)
Obtaining analytic overlap     ... done (      0.0 sec)
Final contraction and storage  ... done (      0.0 sec)

Time for X-Grid setup             =    0.124 sec
--------------
SCF ITERATIONS
--------------
ITER       Energy         Delta-E        Max-DP      RMS-DP      [F,P]     Damp
               ***  Starting incremental Fock matrix formation  ***
  0    -40.4040674742   0.000000000000 0.06419139  0.00460691  0.2017330 0.7000
  1    -40.4398068063  -0.035739332161 0.04316131  0.00341032  0.1050734 0.7000
                               ***Turning on DIIS***
  2    -40.4543080737  -0.014501267360 0.06550611  0.00583664  0.0390792 0.0000
  3    -40.4730188314  -0.018710757680 0.02832866  0.00216320  0.0593218 0.0000
  4    -40.4794409927  -0.006422161323 0.00694708  0.00071413  0.0154182 0.0000
  5    -40.4799009415  -0.000459948773 0.00221330  0.00025634  0.0039452 0.0000
                      *** Initiating the SOSCF procedure ***
                           *** Shutting down DIIS ***
                      *** Re-Reading the Fockian *** 
                      *** Removing any level shift *** 
ITER      Energy       Delta-E        Grad      Rot      Max-DP    RMS-DP
  6    -40.47993492  -0.0000339832  0.000383  0.000383  0.001165  0.000136
               *** Restarting incremental Fock matrix formation ***
  7    -40.47993624  -0.0000013162  0.000044  0.000053  0.000114  0.000008
  8    -40.47993626  -0.0000000184  0.000043  0.000033  0.000063  0.000005
                 **** Energy Check signals convergence ****
              ***Rediagonalizing the Fockian in SOSCF/NRSCF***

               *****************************************************
               *                     SUCCESS                       *
               *           SCF CONVERGED AFTER   9 CYCLES          *
               *****************************************************

Setting up the final grid:

General Integration Accuracy     IntAcc      ...  4.670
Radial Grid Type                 RadialGrid  ... Gauss-Chebyshev
Angular Grid (max. acc.)         AngularGrid ... Lebedev-302
Angular grid pruning method      GridPruning ... 3 (G Style)
Weight generation scheme         WeightScheme... Becke
Basis function cutoff            BFCut       ...    1.0000e-11
Integration weight cutoff        WCut        ...    1.0000e-14
Grids for H and He will be reduced by one unit

# of grid points (after initial pruning)     ...  19788 (   0.0 sec)
# of grid points (after weights+screening)   ...  19293 (   0.0 sec)
nearest neighbour list constructed           ...    0.0 sec
Grid point re-assignment to atoms done       ...    0.0 sec
Grid point division into batches done        ...    0.1 sec
Reduced shell lists constructed in    0.1 sec

Total number of grid points                  ...    19293
Total number of batches                      ...      304
Average number of points per batch           ...       63
Average number of grid points per atom       ...     3859
Average number of shells per batch           ...    14.77 (82.05%)
Average number of basis functions per batch  ...    27.38 (80.54%)
Average number of large shells per batch     ...    14.15 (95.83%)
Average number of large basis fcns per batch ...    26.19 (95.65%)
Maximum spatial batch extension              ...  17.61, 13.25, 20.64 au
Average spatial batch extension              ...   0.58,  0.50,  0.61 au

Final grid set up in    0.1 sec
Final integration                            ... done (   0.2 sec)
Change in XC energy                          ...    -0.000266820
Integrated number of electrons               ...     9.999989280
Previous integrated no of electrons          ...     9.999268923
Old exchange energy                            =     -1.316301550 Eh
New exchange energy                            =     -1.316415213 Eh
Exchange energy change after final integration =     -0.000113663 Eh
Total energy after final integration           =    -40.480316752 Eh
Final COS-X integration done in                =     0.067 sec

----------------
TOTAL SCF ENERGY
----------------

Total Energy       :          -40.48031675 Eh           -1101.52542 eV

Components:
Nuclear Repulsion  :           13.40806550 Eh             364.85201 eV
Electronic Energy  :          -53.88838225 Eh           -1466.37743 eV
One Electron Energy:          -79.76085481 Eh           -2170.40320 eV
Two Electron Energy:           25.87247256 Eh             704.02577 eV

Virial components:
Potential Energy   :          -80.58039525 Eh           -2192.70403 eV
Kinetic Energy     :           40.10007850 Eh            1091.17861 eV
Virial Ratio       :            2.00948223


DFT components:
N(Alpha)           :        4.999994639788 electrons
N(Beta)            :        4.999994639788 electrons
N(Total)           :        9.999989279577 electrons
E(X)               :       -5.199746052779 Eh       
E(C)               :       -0.351086516219 Eh       
E(XC)              :       -5.550832568997 Eh       

---------------
SCF CONVERGENCE
---------------

  Last Energy change         ...   -8.7893e-09  Tolerance :   1.0000e-08
  Last MAX-Density change    ...    8.8818e-16  Tolerance :   1.0000e-07
  Last RMS-Density change    ...    3.6321e-17  Tolerance :   5.0000e-09
  Last Orbital Gradient      ...    4.1349e-07  Tolerance :   1.0000e-05
  Last Orbital Rotation      ...    6.4404e-07  Tolerance :   1.0000e-05

             **** THE GBW FILE WAS UPDATED (g8raf/frag_01_c00001.gbw) ****
             **** DENSITY FILE WAS UPDATED (g8raf/frag_01_c00001.scfp.tmp) ****
             **** ENERGY FILE WAS UPDATED (g8raf/frag_01_c00001.en.tmp) ****
----------------
ORBITAL ENERGIES
----------------

  NO   OCC          E(Eh)            E(eV) 
   0   2.0000     -10.167877      -276.6820 
   1   2.0000      -0.689185       -18.7537 
   2   2.0000      -0.386296       -10.5117 
   3   2.0000      -0.386261       -10.5107 
   4   2.0000      -0.386161       -10.5080 
   5   0.0000       0.077298         2.1034 
   6   0.0000       0.146812         3.9950 
   7   0.0000       0.146984         3.9996 
   8   0.0000       0.148354         4.0369 
   9   0.0000       0.414861        11.2890 
  10   0.0000       0.416346        11.3294 
  11   0.0000       0.418007        11.3746 
  12   0.0000       0.656394        17.8614 
  13   0.0000       0.656828        17.8732 
  14   0.0000       0.657649        17.8955 
  15   0.0000       0.689330        18.7576 
  16   0.0000       0.905325        24.6352 
  17   0.0000       0.905346        24.6357 
  18   0.0000       1.044450        28.4209 
  19   0.0000       1.423791        38.7433 
  20   0.0000       1.424025        38.7497 
  21   0.0000       1.424173        38.7537 
  22   0.0000       1.619988        44.0821 
  23   0.0000       1.621373        44.1198 
  24   0.0000       1.622041        44.1380 
  25   0.0000       1.930549        52.5329 
  26   0.0000       1.931208        52.5508 
  27   0.0000       1.931468        52.5579 
  28   0.0000       2.248664        61.1893 
  29   0.0000       2.248910        61.1960 
  30   0.0000       2.415444        65.7276 
  31   0.0000       2.444855        66.5279 
  32   0.0000       2.445369        66.5419 
  33   0.0000       2.445964        66.5581 
-------
TIMINGS
-------

Total SCF time: 0 days 0 hours 0 min 2 sec 

Total time                  ....       2.541 sec
Sum of individual times     ....       2.513 sec  ( 98.9%)

Fock matrix formation       ....       2.024 sec  ( 79.7%)
  Split-RI-J                ....       1.149 sec  ( 56.8% of F)
  Chain of spheres X        ....       0.570 sec  ( 28.2% of F)
  COS-X 1 center corr.      ....       0.000 sec  (  0.0% of F)
  XC integration            ....       0.286 sec  ( 14.1% of F)
    Basis function eval.    ....       0.042 sec  ( 14.8% of XC)
    Density eval.           ....       0.011 sec  (  3.9% of XC)
    XC-Functional eval.     ....       0.012 sec  (  4.0% of XC)
    XC-Potential eval.      ....       0.016 sec  (  5.4% of XC)
Diagonalization             ....       0.004 sec  (  0.1%)
Density matrix formation    ....       0.017 sec  (  0.7%)
Population analysis         ....       0.000 sec  (  0.0%)
Initial guess               ....       0.114 sec  (  4.5%)
Orbital Transformation      ....       0.000 sec  (  0.0%)
Orbital Orthonormalization  ....       0.000 sec  (  0.0%)
DIIS solution               ....       0.001 sec  (  0.1%)
SOSCF solution              ....       0.098 sec  (  3.8%)
Grid generation             ....       0.255 sec  ( 10.0%)


-------------------------------------------------------------------------------
                          DFT DISPERSION CORRECTION                            
                                                                               
                              DFTD3 V3.1  Rev 1                                
                          USING Becke-Johnson damping                          
-------------------------------------------------------------------------------
The B3LYP functional is recognized
Active option DFTDOPT                   ...         4   

molecular C6(AA) [au] = 127.666344 


            DFT-D V3
 parameters
 s6 scaling factor         :     1.0000 
 a1 scaling factor         :     0.3981 
 s8 scaling factor         :     1.9889 
 a2 scaling factor         :     4.4211 
 ad hoc parameters k1-k3   :    16.0000     1.3333    -4.0000 

 Edisp/kcal,au: -1.200596980793  -0.001913272871 
 E6   /kcal   :  -0.641963500 
 E8   /kcal   :  -0.558633481 
 % E8         :  46.529642352 

-------------------------   ----------------
Dispersion correction           -0.001913273
-------------------------   ----------------


-------------------------   --------------------
FINAL SINGLE POINT ENERGY       -40.482230024747
-------------------------   --------------------



           ************************************************************
           *        Program running with 6 parallel MPI-processes     *
           *              working on a common directory               *
           ************************************************************
------------------------------------------------------------------------------
                         ORCA SCF GRADIENT CALCULATION
------------------------------------------------------------------------------

Gradient of the Kohn-Sham DFT energy:
Kohn-Sham wavefunction type      ... RKS
Hartree-Fock exchange scaling    ...    0.200
Number of operators              ...    1
Number of atoms                  ...    5
Basis set dimensions             ...   34
Integral neglect threshold       ... 2.5e-11
Integral primitive cutoff        ... 2.5e-12

Nuclear repulsion gradient       ... done
One Electron Gradient            ... done
Pre-screening matrix             ... done
RI-J gradient                    ... done
COSX-gradient                    ... done
Exchange-correlation gradient    ... done
Dispersion correction            ... done

------------------
CARTESIAN GRADIENT
------------------

   1   C   :    0.000022475    0.000391771    0.000054028
   2   H   :   -0.002741004   -0.004302429    0.000009483
   3   H   :   -0.001690551    0.003254869    0.004225102
   4   H   :    0.005398017   -0.000634072    0.000000586
   5   H   :   -0.001710461    0.003267820   -0.004277063

Difference to translation invariance:
           :   -0.0007215231    0.0019779578    0.0000121356

Norm of the cartesian gradient     ...    0.0109051752
RMS gradient                       ...    0.0028157041
MAX gradient                       ...    0.0053980171

-------
TIMINGS
-------

Total SCF gradient time            ...        0.589 sec

One electron gradient       ....       0.002 sec  (  0.3%)
Prescreening matrices       ....       0.005 sec  (  0.8%)
RI-J Coulomb gradient       ....       0.097 sec  ( 16.5%)
COSX gradient               ....       0.070 sec  ( 11.9%)
XC gradient                 ....       0.068 sec  ( 11.6%)
------------------------------------------------------------------------------
                         ORCA GEOMETRY RELAXATION STEP
------------------------------------------------------------------------------

Reading the OPT-File                    .... done
Getting information on internals        .... done
Copying old internal coords+grads       .... done
Making the new internal coordinates     .... (new redundants).... done
Validating the new internal coordinates .... (new redundants).... done
Calculating the B-matrix                .... done
Calculating the G,G- and P matrices     .... done
Transforming gradient to internals      .... done
Projecting the internal gradient        .... done
Number of atoms                         ....   5
Number of internal coordinates          ....  10
Current Energy                          ....   -40.482230025 Eh
Current gradient norm                   ....     0.010905175 Eh/bohr
Maximum allowed component of the step   ....  0.300
Current trust radius                    ....  0.300
Evaluating the initial hessian          ....  (Almloef) done
Projecting the Hessian                  .... done
Forming the augmented Hessian           .... done
Diagonalizing the augmented Hessian     .... done
Last element of RFO vector              ....  0.999537752
Lowest eigenvalues of augmented Hessian:
 -0.000330539  0.290086471  0.290093481  0.290095503  0.290097257
Length of the computed step             ....  0.030416057
The final length of the internal step   ....  0.030416057
Converting the step to cartesian space:
 Initial RMS(Int)=    0.0096184019
Transforming coordinates:
 Iter   0:  RMS(Cart)=    0.0078591172 RMS(Int)=    0.0096183927
 Iter   1:  RMS(Cart)=    0.0000034308 RMS(Int)=    0.0000038373
 Iter   2:  RMS(Cart)=    0.0000000238 RMS(Int)=    0.0000000264
done
Storing new coordinates                 .... done

                                .--------------------.
          ----------------------|Geometry convergence|-------------------------
          Item                value                   Tolerance       Converged
          ---------------------------------------------------------------------
          RMS gradient        0.0034367185            0.0020000000      NO
          MAX gradient        0.0056341624            0.0030000000      NO
          RMS step            0.0096184019            0.0200000000      YES
          MAX step            0.0157609916            0.0300000000      YES
          ........................................................
          Max(Bonds)      0.0083      Max(Angles)    0.07
          Max(Dihed)        0.00      Max(Improp)    0.00
          ---------------------------------------------------------------------

The optimization has not yet converged - more geometry cycles are needed


    ---------------------------------------------------------------------------
                         Redundant Internal Coordinates
                            (Angstroem and degrees)

        Definition                    Value    dE/dq     Step     New-Value
    ----------------------------------------------------------------------------
     1. B(H   1,C   0)                1.0922 -0.005367  0.0079    1.1001   
     2. B(H   2,C   0)                1.0923 -0.005324  0.0079    1.1001   
     3. B(H   3,C   0)                1.0922 -0.005634  0.0083    1.1006   
     4. B(H   4,C   0)                1.0922 -0.005382  0.0080    1.1002   
     5. A(H   1,C   0,H   3)          109.47  0.000022   -0.00    109.47   
     6. A(H   2,C   0,H   3)          109.47 -0.000254    0.05    109.52   
     7. A(H   1,C   0,H   4)          109.47  0.000076   -0.02    109.46   
     8. A(H   2,C   0,H   4)          109.47  0.000337   -0.07    109.41   
     9. A(H   3,C   0,H   4)          109.47 -0.000252    0.05    109.52   
    10. A(H   1,C   0,H   2)          109.47  0.000070   -0.01    109.46   
    ----------------------------------------------------------------------------

         *************************************************************
         *                GEOMETRY OPTIMIZATION CYCLE   2            *
         *************************************************************
---------------------------------
CARTESIAN COORDINATES (ANGSTROEM)
---------------------------------
  C     -4.659162   -2.119570    0.002983
  H     -4.140282   -1.149490    0.001481
  H     -4.374315   -2.688876   -0.894277
  H     -5.747154   -1.953568    0.003189
  H     -4.373588   -2.686496    0.901524

----------------------------
CARTESIAN COORDINATES (A.U.)
----------------------------
  NO LB      ZA    FRAG     MASS         X           Y           Z
   0 C     6.0000    0    12.011   -8.804540   -4.005407    0.005637
   1 H     1.0000    0     1.008   -7.823998   -2.172221    0.002798
   2 H     1.0000    0     1.008   -8.266257   -5.081240   -1.689938
   3 H     1.0000    0     1.008  -10.860548   -3.691708    0.006026
   4 H     1.0000    0     1.008   -8.264883   -5.076742    1.703634

--------------------------------
INTERNAL COORDINATES (ANGSTROEM)
--------------------------------
 C      0   0   0     0.000000000000     0.00000000     0.00000000
 H      1   0   0     1.100133628711     0.00000000     0.00000000
 H      1   2   0     1.100146471055   109.45552199     0.00000000
 H      1   2   3     1.100583663748   109.46650936   239.95096136
 H      1   2   3     1.100151973389   109.45597533   119.90011575

---------------------------
INTERNAL COORDINATES (A.U.)
---------------------------
 C      0   0   0     0.000000000000     0.00000000     0.00000000
 H      1   0   0     2.078951268980     0.00000000     0.00000000
 H      1   2   0     2.078975537495   109.45552199     0.00000000
 H      1   2   3     2.079801711951   109.46650936   239.95096136
 H      1   2   3     2.078985935398   109.45597533   119.90011575



           ************************************************************
           *        Program running with 6 parallel MPI-processes     *
           *              working on a common directory               *
           ************************************************************
 One Electron integrals                  ... done
 Pre-screening matrix                    ... done


           ************************************************************
           *        Program running with 6 parallel MPI-processes     *
           *              working on a common directory               *
           ************************************************************

Diagonalization of the overlap matrix:
Smallest eigenvalue                        ... 2.353e-02
Time for diagonalization                   ...    0.005 sec
Threshold for overlap eigenvalues          ... 1.000e-08
Number of eigenvalues below threshold      ... 0
Time for construction of square roots      ...    0.000 sec
Total time needed                          ...    0.014 sec

-------------------
DFT GRID GENERATION
-------------------

General Integration Accuracy     IntAcc      ...  4.340
Radial Grid Type                 RadialGrid  ... Gauss-Chebyshev
Angular Grid (max. acc.)         AngularGrid ... Lebedev-110
Angular grid pruning method      GridPruning ... 3 (G Style)
Weight generation scheme         WeightScheme... Becke
Basis function cutoff            BFCut       ...    1.0000e-11
Integration weight cutoff        WCut        ...    1.0000e-14
Grids for H and He will be reduced by one unit

# of grid points (after initial pruning)     ...   4832 (   0.0 sec)
# of grid points (after weights+screening)   ...   4749 (   0.0 sec)
nearest neighbour list constructed           ...    0.0 sec
Grid point re-assignment to atoms done       ...    0.0 sec
Grid point division into batches done        ...    0.0 sec
Reduced shell lists constructed in    0.0 sec

Total number of grid points                  ...     4749
Total number of batches                      ...       77
Average number of points per batch           ...       61
Average number of grid points per atom       ...      950
Average number of shells per batch           ...    15.79 (87.70%)
Average number of basis functions per batch  ...    29.50 (86.76%)
Average number of large shells per batch     ...    15.29 (96.83%)
Average number of large basis fcns per batch ...    28.57 (96.85%)
Maximum spatial batch extension              ...  16.97, 16.75, 23.60 au
Average spatial batch extension              ...   0.76,  0.77,  0.86 au

Time for grid setup =    0.026 sec

--------------------
COSX GRID GENERATION
--------------------

General Integration Accuracy     IntAcc      ...  3.340
Radial Grid Type                 RadialGrid  ... Gauss-Chebyshev
Angular Grid (max. acc.)         AngularGrid ... Lebedev-50
Angular grid pruning method      GridPruning ... 3 (G Style)
Weight generation scheme         WeightScheme... Becke
Basis function cutoff            BFCut       ...    1.0000e-11
Integration weight cutoff        WCut        ...    1.0000e-14
Grids for H and He will be reduced by one unit

# of grid points (after initial pruning)     ...   1860 (   0.0 sec)
# of grid points (after weights+screening)   ...   1823 (   0.0 sec)
nearest neighbour list constructed           ...    0.0 sec
Grid point re-assignment to atoms done       ...    0.0 sec
Grid point division into batches done        ...    0.0 sec
Reduced shell lists constructed in    0.0 sec

Total number of grid points                  ...     1823
Total number of batches                      ...       32
Average number of points per batch           ...       56
Average number of grid points per atom       ...      365
Average number of shells per batch           ...    15.43 (85.71%)
Average number of basis functions per batch  ...    29.14 (85.71%)
Average number of large shells per batch     ...    15.29 (99.07%)
Average number of large basis fcns per batch ...    28.71 (98.53%)
Maximum spatial batch extension              ...  14.69, 12.66, 16.63 au
Average spatial batch extension              ...   0.65,  0.67,  0.74 au

Overlap Fitting                  UseSFitting ... on
Constructing numerical overlap ... done (      0.0 sec)
Inverting numerical overlap    ... done (      0.0 sec)
Obtaining analytic overlap     ... done (      0.0 sec)
Final contraction and storage  ... done (      0.0 sec)


General Integration Accuracy     IntAcc      ...  3.670
Radial Grid Type                 RadialGrid  ... Gauss-Chebyshev
Angular Grid (max. acc.)         AngularGrid ... Lebedev-50
Angular grid pruning method      GridPruning ... 3 (G Style)
Weight generation scheme         WeightScheme... Becke
Basis function cutoff            BFCut       ...    1.0000e-11
Integration weight cutoff        WCut        ...    1.0000e-14
Grids for H and He will be reduced by one unit

# of grid points (after initial pruning)     ...   2450 (   0.0 sec)
# of grid points (after weights+screening)   ...   2399 (   0.0 sec)
nearest neighbour list constructed           ...    0.0 sec
Grid point re-assignment to atoms done       ...    0.0 sec
Grid point division into batches done        ...    0.0 sec
Reduced shell lists constructed in    0.0 sec

Total number of grid points                  ...     2399
Total number of batches                      ...       41
Average number of points per batch           ...       58
Average number of grid points per atom       ...      480
Average number of shells per batch           ...    15.75 (87.50%)
Average number of basis functions per batch  ...    29.75 (87.50%)
Average number of large shells per batch     ...    15.50 (98.41%)
Average number of large basis fcns per batch ...    29.25 (98.32%)
Maximum spatial batch extension              ...  16.05, 13.86, 18.43 au
Average spatial batch extension              ...   0.62,  0.57,  0.63 au

Overlap Fitting                  UseSFitting ... on
Constructing numerical overlap ... done (      0.0 sec)
Inverting numerical overlap    ... done (      0.0 sec)
Obtaining analytic overlap     ... done (      0.0 sec)
Final contraction and storage  ... done (      0.0 sec)


General Integration Accuracy     IntAcc      ...  4.010
Radial Grid Type                 RadialGrid  ... Gauss-Chebyshev
Angular Grid (max. acc.)         AngularGrid ... Lebedev-110
Angular grid pruning method      GridPruning ... 3 (G Style)
Weight generation scheme         WeightScheme... Becke
Basis function cutoff            BFCut       ...    1.0000e-11
Integration weight cutoff        WCut        ...    1.0000e-14
Grids for H and He will be reduced by one unit

# of grid points (after initial pruning)     ...   4140 (   0.0 sec)
# of grid points (after weights+screening)   ...   4071 (   0.0 sec)
nearest neighbour list constructed           ...    0.0 sec
Grid point re-assignment to atoms done       ...    0.0 sec
Grid point division into batches done        ...    0.0 sec
Reduced shell lists constructed in    0.0 sec

Total number of grid points                  ...     4071
Total number of batches                      ...       66
Average number of points per batch           ...       61
Average number of grid points per atom       ...      814
Average number of shells per batch           ...    15.92 (88.43%)
Average number of basis functions per batch  ...    29.92 (87.99%)
Average number of large shells per batch     ...    15.50 (97.38%)
Average number of large basis fcns per batch ...    29.00 (96.94%)
Maximum spatial batch extension              ...  16.81, 15.92, 21.93 au
Average spatial batch extension              ...   0.63,  0.65,  0.78 au

Overlap Fitting                  UseSFitting ... on
Constructing numerical overlap ... done (      0.0 sec)
Inverting numerical overlap    ... done (      0.0 sec)
Obtaining analytic overlap     ... done (      0.0 sec)
Final contraction and storage  ... done (      0.0 sec)

Time for X-Grid setup             =    0.113 sec
--------------
SCF ITERATIONS
--------------
ITER       Energy         Delta-E        Max-DP      RMS-DP      [F,P]     Damp
               ***  Starting incremental Fock matrix formation  ***
                      *** Initiating the SOSCF procedure ***
                      *** Re-Reading the Fockian *** 
                      *** Removing any level shift *** 
ITER      Energy       Delta-E        Grad      Rot      Max-DP    RMS-DP
  0    -40.48006892 -40.4800689180  0.002230  0.002230  0.004261  0.000303
               *** Restarting incremental Fock matrix formation ***
  1    -40.48009978  -0.0000308604  0.000967  0.000809  0.001566  0.000120
  2    -40.48009976   0.0000000144  0.000600  0.000447  0.000868  0.000065
  3    -40.48010294  -0.0000031727  0.000014  0.000016  0.000039  0.000003
                  ***Gradient check signals convergence***
              ***Rediagonalizing the Fockian in SOSCF/NRSCF***

               *****************************************************
               *                     SUCCESS                       *
               *           SCF CONVERGED AFTER   4 CYCLES          *
               *****************************************************

Setting up the final grid:

General Integration Accuracy     IntAcc      ...  4.670
Radial Grid Type                 RadialGrid  ... Gauss-Chebyshev
Angular Grid (max. acc.)         AngularGrid ... Lebedev-302
Angular grid pruning method      GridPruning ... 3 (G Style)
Weight generation scheme         WeightScheme... Becke
Basis function cutoff            BFCut       ...    1.0000e-11
Integration weight cutoff        WCut        ...    1.0000e-14
Grids for H and He will be reduced by one unit

# of grid points (after initial pruning)     ...  19788 (   0.0 sec)
# of grid points (after weights+screening)   ...  19299 (   0.0 sec)
nearest neighbour list constructed           ...    0.0 sec
Grid point re-assignment to atoms done       ...    0.0 sec
Grid point division into batches done        ...    0.1 sec
Reduced shell lists constructed in    0.1 sec

Total number of grid points                  ...    19299
Total number of batches                      ...      304
Average number of points per batch           ...       63
Average number of grid points per atom       ...     3860
Average number of shells per batch           ...    14.75 (81.94%)
Average number of basis functions per batch  ...    27.37 (80.49%)
Average number of large shells per batch     ...    14.13 (95.83%)
Average number of large basis fcns per batch ...    26.17 (95.64%)
Maximum spatial batch extension              ...  17.61, 13.26, 20.64 au
Average spatial batch extension              ...   0.57,  0.50,  0.61 au

Final grid set up in    0.1 sec
Final integration                            ... done (   0.0 sec)
Change in XC energy                          ...    -0.000267170
Integrated number of electrons               ...     9.999989881
Previous integrated no of electrons          ...     9.999228652
Old exchange energy                            =     -1.313940413 Eh
New exchange energy                            =     -1.314052493 Eh
Exchange energy change after final integration =     -0.000112080 Eh
Total energy after final integration           =    -40.480482171 Eh
Final COS-X integration done in                =     0.067 sec
Total Energy       :          -40.48048217 Eh           -1101.52992 eV
  Last Energy change         ...    1.5576e-08  Tolerance :   1.0000e-08
  Last MAX-Density change    ...    4.4409e-16  Tolerance :   1.0000e-07
             **** THE GBW FILE WAS UPDATED (g8raf/frag_01_c00001.gbw) ****
             **** DENSITY FILE WAS UPDATED (g8raf/frag_01_c00001.scfp.tmp) ****
             **** ENERGY FILE WAS UPDATED (g8raf/frag_01_c00001.en.tmp) ****
Total SCF time: 0 days 0 hours 0 min 1 sec 


-------------------------------------------------------------------------------
                          DFT DISPERSION CORRECTION                            
                                                                               
                              DFTD3 V3.1  Rev 1                                
                          USING Becke-Johnson damping                          
-------------------------------------------------------------------------------
-------------------------   ----------------
Dispersion correction           -0.001912641
-------------------------   ----------------


-------------------------   --------------------
FINAL SINGLE POINT ENERGY       -40.482394812637
-------------------------   --------------------



           ************************************************************
           *        Program running with 6 parallel MPI-processes     *
           *              working on a common directory               *
           ************************************************************
------------------------------------------------------------------------------
                         ORCA SCF GRADIENT CALCULATION
------------------------------------------------------------------------------

Gradient of the Kohn-Sham DFT energy:
Kohn-Sham wavefunction type      ... RKS
Hartree-Fock exchange scaling    ...    0.200
Number of operators              ...    1
Number of atoms                  ...    5
Basis set dimensions             ...   34
Integral neglect threshold       ... 2.5e-11
Integral primitive cutoff        ... 2.5e-12

Nuclear repulsion gradient       ... done
One Electron Gradient            ... done
Pre-screening matrix             ... done
RI-J gradient                    ... done
COSX-gradient                    ... done
Exchange-correlation gradient    ... done
Dispersion correction            ... done

------------------
CARTESIAN GRADIENT
------------------

   1   C   :    0.000106131    0.000379170    0.000009169
   2   H   :   -0.000199954    0.000409295    0.000001797
   3   H   :   -0.000224670    0.000465187   -0.000039563
   4   H   :   -0.000177373    0.000281803    0.000000714
   5   H   :   -0.000225648    0.000460834    0.000039475

Difference to translation invariance:
           :   -0.0007215145    0.0019962892    0.0000115918

Norm of the cartesian gradient     ...    0.0010033864
RMS gradient                       ...    0.0002590733
MAX gradient                       ...    0.0004651875

-------
TIMINGS
-------

Total SCF gradient time            ...        0.735 sec

One electron gradient       ....       0.002 sec  (  0.3%)
Prescreening matrices       ....       0.006 sec  (  0.8%)
RI-J Coulomb gradient       ....       0.102 sec  ( 13.9%)
COSX gradient               ....       0.073 sec  (  9.9%)
XC gradient                 ....       0.073 sec  (  9.9%)
------------------------------------------------------------------------------
                         ORCA GEOMETRY RELAXATION STEP
------------------------------------------------------------------------------

Reading the OPT-File                    .... done
Getting information on internals        .... done
Copying old internal coords+grads       .... done
Making the new internal coordinates     .... (new redundants).... done
Validating the new internal coordinates .... (new redundants).... done
Calculating the B-matrix                .... done
Calculating the G,G- and P matrices     .... done
Transforming gradient to internals      .... done
Projecting the internal gradient        .... done
Number of atoms                         ....   5
Number of internal coordinates          ....  10
Current Energy                          ....   -40.482394813 Eh
Current gradient norm                   ....     0.001003386 Eh/bohr
Maximum allowed component of the step   ....  0.300
Current trust radius                    ....  0.300
Updating the Hessian (BFGS)             .... done
Forming the augmented Hessian           .... done
Diagonalizing the augmented Hessian     .... done
Last element of RFO vector              ....  0.999999613
Lowest eigenvalues of augmented Hessian:
 -0.000000224  0.288535142  0.290089715  0.290093835  0.290096715
Length of the computed step             ....  0.000879426
The final length of the internal step   ....  0.000879426
Converting the step to cartesian space:
 Initial RMS(Int)=    0.0002780989
Transforming coordinates:
 Iter   0:  RMS(Cart)=    0.0002374728 RMS(Int)=    0.0002781266
 Iter   1:  RMS(Cart)=    0.0000000523 RMS(Int)=    0.0000000709
done
Storing new coordinates                 .... done

                                .--------------------.
          ----------------------|Geometry convergence|-------------------------
          Item                value                   Tolerance       Converged
          ---------------------------------------------------------------------
          Energy change      -0.0001647879            0.0001000000      NO
          RMS gradient        0.0000804595            0.0020000000      YES
          MAX gradient        0.0001596910            0.0030000000      YES
          RMS step            0.0002780989            0.0200000000      YES
          MAX step            0.0005529758            0.0300000000      YES
          ........................................................
          Max(Bonds)      0.0000      Max(Angles)    0.03
          Max(Dihed)        0.00      Max(Improp)    0.00
          ---------------------------------------------------------------------

       Everything but the energy has converged. However, the energy
       appears to be close enough to convergence to make sure that the
       final evaluation at the new geometry represents the equilibrium energy.
       Convergence will therefore be signaled now


                    ***********************HURRAY********************
                    ***        THE OPTIMIZATION HAS CONVERGED     ***
                    *************************************************


    ---------------------------------------------------------------------------
                         Redundant Internal Coordinates

                          --- Optimized Parameters ---  
                            (Angstroem and degrees)

        Definition                    OldVal   dE/dq     Step     FinalVal
    ----------------------------------------------------------------------------
     1. B(H   1,C   0)                1.1001 -0.000017  0.0000    1.1002   
     2. B(H   2,C   0)                1.1001 -0.000021  0.0000    1.1002   
     3. B(H   3,C   0)                1.1006  0.000015 -0.0000    1.1006   
     4. B(H   4,C   0)                1.1002 -0.000023  0.0000    1.1002   
     5. A(H   1,C   0,H   3)          109.47  0.000024   -0.00    109.46   
     6. A(H   2,C   0,H   3)          109.52 -0.000133    0.03    109.55   
     7. A(H   1,C   0,H   4)          109.46  0.000042   -0.01    109.45   
     8. A(H   2,C   0,H   4)          109.41  0.000160   -0.03    109.37   
     9. A(H   3,C   0,H   4)          109.52 -0.000129    0.03    109.55   
    10. A(H   1,C   0,H   2)          109.46  0.000036   -0.01    109.45   
    ----------------------------------------------------------------------------
                 *******************************************************
                 *** FINAL ENERGY EVALUATION AT THE STATIONARY POINT ***
                 ***               (AFTER    2 CYCLES)               ***
                 *******************************************************
---------------------------------
CARTESIAN COORDINATES (ANGSTROEM)
---------------------------------
  C     -4.659343   -2.119559    0.002978
  H     -4.140346   -1.149506    0.001485
  H     -4.374125   -2.688984   -0.894132
  H     -5.747288   -1.953354    0.003191
  H     -4.373398   -2.686597    0.901378

----------------------------
CARTESIAN COORDINATES (A.U.)
----------------------------
  NO LB      ZA    FRAG     MASS         X           Y           Z
   0 C     6.0000    0    12.011   -8.804882   -4.005386    0.005628
   1 H     1.0000    0     1.008   -7.824121   -2.172251    0.002807
   2 H     1.0000    0     1.008   -8.265898   -5.081443   -1.689665
   3 H     1.0000    0     1.008  -10.860800   -3.691304    0.006030
   4 H     1.0000    0     1.008   -8.264525   -5.076933    1.703358

--------------------------------
INTERNAL COORDINATES (ANGSTROEM)
--------------------------------
 C      0   0   0     0.000000000000     0.00000000     0.00000000
 H      1   0   0     1.100164731355     0.00000000     0.00000000
 H      1   2   0     1.100182576029   109.44839461     0.00000000
 H      1   2   3     1.100566920951   109.46173455   239.92601912
 H      1   2   3     1.100190697390   109.44766712   119.85192028

---------------------------
INTERNAL COORDINATES (A.U.)
---------------------------
 C      0   0   0     0.000000000000     0.00000000     0.00000000
 H      1   0   0     2.079010044460     0.00000000     0.00000000
 H      1   2   0     2.079043766007   109.44839461     0.00000000
 H      1   2   3     2.079770072651   109.46173455   239.92601912
 H      1   2   3     2.079059113155   109.44766712   119.85192028

---------------------
BASIS SET INFORMATION
---------------------
There are 2 groups of distinct atoms

 Group   1 Type C   : 17s4p1d contracted to 3s2p1d pattern {881/31/1}
 Group   2 Type H   : 4s1p contracted to 2s1p pattern {31/1}

Atom   0C    basis set group =>   1
Atom   1H    basis set group =>   2
Atom   2H    basis set group =>   2
Atom   3H    basis set group =>   2
Atom   4H    basis set group =>   2
-------------------------------
AUXILIARY BASIS SET INFORMATION
-------------------------------
There are 2 groups of distinct atoms

 Group   1 Type C   : 12s5p4d2f1g contracted to 6s4p3d1f1g pattern {711111/2111/211/2/1}
 Group   2 Type H   : 5s2p1d contracted to 3s1p1d pattern {311/2/1}

Atom   0C    basis set group =>   1
Atom   1H    basis set group =>   2
Atom   2H    basis set group =>   2
Atom   3H    basis set group =>   2
Atom   4H    basis set group =>   2


           ************************************************************
           *        Program running with 6 parallel MPI-processes     *
           *              working on a common directory               *
           ************************************************************
------------------------------------------------------------------------------
                           ORCA GTO INTEGRAL CALCULATION
                           -- RI-GTO INTEGRALS CHOSEN --
------------------------------------------------------------------------------

                         BASIS SET STATISTICS AND STARTUP INFO

Gaussian basis set:
 # of primitive gaussian shells          ...   42
 # of primitive gaussian functions       ...   62
 # of contracted shells                  ...   18
 # of contracted basis functions         ...   34
 Highest angular momentum                ...    2
 Maximum contraction depth               ...    8
Auxiliary gaussian basis set:
 # of primitive gaussian shells          ...   56
 # of primitive gaussian functions       ...  134
 # of contracted shells                  ...   35
 # of contracted aux-basis functions     ...   93
 Highest angular momentum                ...    4
 Maximum contraction depth               ...    7
Ratio of auxiliary to basis functions    ...  2.74
Integral package used                  ... LIBINT
 One Electron integrals                  ... done
 Ordering auxiliary basis shells         ... done
 Integral threshhold             Thresh  ...  2.500e-11
 Primitive cut-off               TCut    ...  2.500e-12
 Pre-screening matrix                    ... done
 Shell pair data                         ... 
 Ordering of the shell pairs             ... done (   0.000 sec) 171 of 171 pairs
 Determination of significant pairs      ... done (   0.000 sec)
 Creation of shell pair data             ... done (   0.000 sec)
 Storage of shell pair data              ... done (   0.000 sec)
 Shell pair data done in (   0.001 sec)
 Computing two index integrals           ... done
 Cholesky decomposition of the V-matrix  ... done


Timings:
 Total evaluation time                   ...   0.213 sec (  0.004 min)
 One electron matrix time                ...   0.009 sec (  0.000 min) =  4.1%
 Schwartz matrix evaluation time         ...   0.175 sec (  0.003 min) = 82.2%
 Two index repulsion integral time       ...   0.008 sec (  0.000 min) =  3.8%
 Cholesky decomposition of V             ...   0.000 sec (  0.000 min) =  0.2%
 Three index repulsion integral time     ...   0.000 sec (  0.000 min) =  0.0%



           ************************************************************
           *        Program running with 6 parallel MPI-processes     *
           *              working on a common directory               *
           ************************************************************
-------------------------------------------------------------------------------
                                 ORCA SCF
-------------------------------------------------------------------------------

------------
SCF SETTINGS
------------
Hamiltonian:
 Density Functional     Method          .... DFT(GTOs)
 Exchange Functional    Exchange        .... B88
   X-Alpha parameter    XAlpha          ....  0.666667
   Becke's b parameter  XBeta           ....  0.004200
 Correlation Functional Correlation     .... LYP
 LDA part of GGA corr.  LDAOpt          .... VWN-5
 Gradients option       PostSCFGGA      .... off
 Hybrid DFT is turned on
   Fraction HF Exchange ScalHFX         ....  0.200000
   Scaling of DF-GGA-X  ScalDFX         ....  0.720000
   Scaling of DF-GGA-C  ScalDFC         ....  0.810000
   Scaling of DF-LDA-C  ScalLDAC        ....  1.000000
   Perturbative correction              ....  0.000000
   NL short-range parameter             ....  4.800000
 RI-approximation to the Coulomb term is turned on
   Number of auxiliary basis functions  .... 93
   RIJ-COSX (HFX calculated with COS-X)).... on


General Settings:
 Integral files         IntName         .... g8raf/frag_01_c00001
 Hartree-Fock type      HFTyp           .... RHF
 Total Charge           Charge          ....    0
 Multiplicity           Mult            ....    1
 Number of Electrons    NEL             ....   10
 Basis Dimension        Dim             ....   34
 Nuclear Repulsion      ENuc            ....     13.3099079223 Eh

Convergence Acceleration:
 DIIS                   CNVDIIS         .... on
   Start iteration      DIISMaxIt       ....    12
   Startup error        DIISStart       ....  0.200000
   # of expansion vecs  DIISMaxEq       ....     5
   Bias factor          DIISBfac        ....   1.050
   Max. coefficient     DIISMaxC        ....  10.000
 Newton-Raphson         CNVNR           .... off
 SOSCF                  CNVSOSCF        .... on
   Start iteration      SOSCFMaxIt      ....   150
   Startup grad/error   SOSCFStart      ....  0.003300
 Level Shifting         CNVShift        .... on
   Level shift para.    LevelShift      ....    0.2500
   Turn off err/grad.   ShiftErr        ....    0.0010
 Zerner damping         CNVZerner       .... off
 Static damping         CNVDamp         .... on
   Fraction old density DampFac         ....    0.7000
   Max. Damping (<1)    DampMax         ....    0.9800
   Min. Damping (>=0)   DampMin         ....    0.0000
   Turn off err/grad.   DampErr         ....    0.1000
 Fernandez-Rico         CNVRico         .... off

SCF Procedure:
 Maximum # iterations   MaxIter         ....   125
 SCF integral mode      SCFMode         .... Direct
   Integral package                     .... LIBINT
 Reset frequeny         DirectResetFreq ....    20
 Integral Threshold     Thresh          ....  2.500e-11 Eh
 Primitive CutOff       TCut            ....  2.500e-12 Eh

Convergence Tolerance:
 Convergence Check Mode ConvCheckMode   .... Total+1el-Energy
 Convergence forced     ConvForced      .... 0
 Energy Change          TolE            ....  1.000e-08 Eh
 1-El. energy change                    ....  1.000e-05 Eh
 Orbital Gradient       TolG            ....  1.000e-05
 Orbital Rotation angle TolX            ....  1.000e-05
 DIIS Error             TolErr          ....  5.000e-07


Diagonalization of the overlap matrix:
Smallest eigenvalue                        ... 2.353e-02
Time for diagonalization                   ...    0.001 sec
Threshold for overlap eigenvalues          ... 1.000e-08
Number of eigenvalues below threshold      ... 0
Time for construction of square roots      ...    0.000 sec
Total time needed                          ...    0.001 sec

---------------------
INITIAL GUESS: MOREAD
---------------------
Guess MOs are being read from file: g8raf/frag_01_c00001.gbw
Input Geometry matches current geometry (good)
Input basis set matches current basis set (good)
MOs were renormalized
MOs were reorthogonalized (Cholesky)
                      ------------------
                      INITIAL GUESS DONE (   0.0 sec)
                      ------------------
-------------------
DFT GRID GENERATION
-------------------

General Integration Accuracy     IntAcc      ...  4.340
Radial Grid Type                 RadialGrid  ... Gauss-Chebyshev
Angular Grid (max. acc.)         AngularGrid ... Lebedev-110
Angular grid pruning method      GridPruning ... 3 (G Style)
Weight generation scheme         WeightScheme... Becke
Basis function cutoff            BFCut       ...    1.0000e-11
Integration weight cutoff        WCut        ...    1.0000e-14
Grids for H and He will be reduced by one unit

# of grid points (after initial pruning)     ...   4832 (   0.0 sec)
# of grid points (after weights+screening)   ...   4749 (   0.0 sec)
nearest neighbour list constructed           ...    0.0 sec
Grid point re-assignment to atoms done       ...    0.0 sec
Grid point division into batches done        ...    0.0 sec
Reduced shell lists constructed in    0.0 sec

Total number of grid points                  ...     4749
Total number of batches                      ...       77
Average number of points per batch           ...       61
Average number of grid points per atom       ...      950
Average number of shells per batch           ...    15.79 (87.70%)
Average number of basis functions per batch  ...    29.50 (86.76%)
Average number of large shells per batch     ...    15.29 (96.83%)
Average number of large basis fcns per batch ...    28.57 (96.85%)
Maximum spatial batch extension              ...  16.97, 16.75, 23.60 au
Average spatial batch extension              ...   0.76,  0.77,  0.86 au

Time for grid setup =    0.014 sec

--------------------
COSX GRID GENERATION
--------------------

General Integration Accuracy     IntAcc      ...  3.340
Radial Grid Type                 RadialGrid  ... Gauss-Chebyshev
Angular Grid (max. acc.)         AngularGrid ... Lebedev-50
Angular grid pruning method      GridPruning ... 3 (G Style)
Weight generation scheme         WeightScheme... Becke
Basis function cutoff            BFCut       ...    1.0000e-11
Integration weight cutoff        WCut        ...    1.0000e-14
Grids for H and He will be reduced by one unit

# of grid points (after initial pruning)     ...   1860 (   0.0 sec)
# of grid points (after weights+screening)   ...   1823 (   0.0 sec)
nearest neighbour list constructed           ...    0.0 sec
Grid point re-assignment to atoms done       ...    0.0 sec
Grid point division into batches done        ...    0.0 sec
Reduced shell lists constructed in    0.0 sec

Total number of grid points                  ...     1823
Total number of batches                      ...       32
Average number of points per batch           ...       56
Average number of grid points per atom       ...      365
Average number of shells per batch           ...    15.43 (85.71%)
Average number of basis functions per batch  ...    29.14 (85.71%)
Average number of large shells per batch     ...    15.29 (99.07%)
Average number of large basis fcns per batch ...    28.71 (98.53%)
Maximum spatial batch extension              ...  14.69, 12.66, 16.63 au
Average spatial batch extension              ...   0.65,  0.64,  0.74 au

Overlap Fitting                  UseSFitting ... on
Constructing numerical overlap ... done (      0.0 sec)
Inverting numerical overlap    ... done (      0.0 sec)
Obtaining analytic overlap     ... done (      0.0 sec)
Final contraction and storage  ... done (      0.0 sec)


General Integration Accuracy     IntAcc      ...  3.670
Radial Grid Type                 RadialGrid  ... Gauss-Chebyshev
Angular Grid (max. acc.)         AngularGrid ... Lebedev-50
Angular grid pruning method      GridPruning ... 3 (G Style)
Weight generation scheme         WeightScheme... Becke
Basis function cutoff            BFCut       ...    1.0000e-11
Integration weight cutoff        WCut        ...    1.0000e-14
Grids for H and He will be reduced by one unit

# of grid points (after initial pruning)     ...   2450 (   0.0 sec)
# of grid points (after weights+screening)   ...   2399 (   0.0 sec)
nearest neighbour list constructed           ...    0.0 sec
Grid point re-assignment to atoms done       ...    0.0 sec
Grid point division into batches done        ...    0.0 sec
Reduced shell lists constructed in    0.0 sec

Total number of grid points                  ...     2399
Total number of batches                      ...       41
Average number of points per batch           ...       58
Average number of grid points per atom       ...      480
Average number of shells per batch           ...    15.75 (87.50%)
Average number of basis functions per batch  ...    29.75 (87.50%)
Average number of large shells per batch     ...    15.50 (98.41%)
Average number of large basis fcns per batch ...    29.25 (98.32%)
Maximum spatial batch extension              ...  16.05, 13.86, 18.43 au
Average spatial batch extension              ...   0.62,  0.57,  0.63 au

Overlap Fitting                  UseSFitting ... on
Constructing numerical overlap ... done (      0.0 sec)
Inverting numerical overlap    ... done (      0.0 sec)
Obtaining analytic overlap     ... done (      0.0 sec)
Final contraction and storage  ... done (      0.0 sec)


General Integration Accuracy     IntAcc      ...  4.010
Radial Grid Type                 RadialGrid  ... Gauss-Chebyshev
Angular Grid (max. acc.)         AngularGrid ... Lebedev-110
Angular grid pruning method      GridPruning ... 3 (G Style)
Weight generation scheme         WeightScheme... Becke
Basis function cutoff            BFCut       ...    1.0000e-11
Integration weight cutoff        WCut        ...    1.0000e-14
Grids for H and He will be reduced by one unit

# of grid points (after initial pruning)     ...   4140 (   0.0 sec)
# of grid points (after weights+screening)   ...   4071 (   0.0 sec)
nearest neighbour list constructed           ...    0.0 sec
Grid point re-assignment to atoms done       ...    0.0 sec
Grid point division into batches done        ...    0.0 sec
Reduced shell lists constructed in    0.0 sec

Total number of grid points                  ...     4071
Total number of batches                      ...       66
Average number of points per batch           ...       61
Average number of grid points per atom       ...      814
Average number of shells per batch           ...    15.92 (88.43%)
Average number of basis functions per batch  ...    29.92 (87.99%)
Average number of large shells per batch     ...    15.50 (97.38%)
Average number of large basis fcns per batch ...    29.00 (96.94%)
Maximum spatial batch extension              ...  16.81, 15.92, 21.93 au
Average spatial batch extension              ...   0.63,  0.65,  0.78 au

Overlap Fitting                  UseSFitting ... on
Constructing numerical overlap ... done (      0.0 sec)
Inverting numerical overlap    ... done (      0.0 sec)
Obtaining analytic overlap     ... done (      0.0 sec)
Final contraction and storage  ... done (      0.0 sec)

Time for X-Grid setup             =    0.120 sec
--------------
SCF ITERATIONS
--------------
ITER       Energy         Delta-E        Max-DP      RMS-DP      [F,P]     Damp
               ***  Starting incremental Fock matrix formation  ***
                      *** Initiating the SOSCF procedure ***
                      *** Re-Reading the Fockian *** 
                      *** Removing any level shift *** 
ITER      Energy       Delta-E        Grad      Rot      Max-DP    RMS-DP
  0    -40.48010292 -40.4801029169  0.000034  0.000034  0.000050  0.000005
               *** Restarting incremental Fock matrix formation ***
  1    -40.48010290   0.0000000123  0.000011  0.000014  0.000015  0.000002
                  ***Gradient check signals convergence***
              ***Rediagonalizing the Fockian in SOSCF/NRSCF***

               *****************************************************
               *                     SUCCESS                       *
               *           SCF CONVERGED AFTER   2 CYCLES          *
               *****************************************************

Setting up the final grid:

General Integration Accuracy     IntAcc      ...  4.670
Radial Grid Type                 RadialGrid  ... Gauss-Chebyshev
Angular Grid (max. acc.)         AngularGrid ... Lebedev-302
Angular grid pruning method      GridPruning ... 3 (G Style)
Weight generation scheme         WeightScheme... Becke
Basis function cutoff            BFCut       ...    1.0000e-11
Integration weight cutoff        WCut        ...    1.0000e-14
Grids for H and He will be reduced by one unit

# of grid points (after initial pruning)     ...  19788 (   0.0 sec)
# of grid points (after weights+screening)   ...  19299 (   0.0 sec)
nearest neighbour list constructed           ...    0.0 sec
Grid point re-assignment to atoms done       ...    0.0 sec
Grid point division into batches done        ...    0.1 sec
Reduced shell lists constructed in    0.1 sec

Total number of grid points                  ...    19299
Total number of batches                      ...      304
Average number of points per batch           ...       63
Average number of grid points per atom       ...     3860
Average number of shells per batch           ...    14.75 (81.94%)
Average number of basis functions per batch  ...    27.37 (80.49%)
Average number of large shells per batch     ...    14.13 (95.83%)
Average number of large basis fcns per batch ...    26.17 (95.64%)
Maximum spatial batch extension              ...  17.61, 13.26, 20.64 au
Average spatial batch extension              ...   0.57,  0.50,  0.62 au

Final grid set up in    0.1 sec
Final integration                            ... done (   0.0 sec)
Change in XC energy                          ...    -0.000267088
Integrated number of electrons               ...     9.999989902
Previous integrated no of electrons          ...     9.999230963
Old exchange energy                            =     -1.313933984 Eh
New exchange energy                            =     -1.314045973 Eh
Exchange energy change after final integration =     -0.000111988 Eh
Total energy after final integration           =    -40.480481971 Eh
Final COS-X integration done in                =     0.065 sec

----------------
TOTAL SCF ENERGY
----------------

Total Energy       :          -40.48048197 Eh           -1101.52992 eV

Components:
Nuclear Repulsion  :           13.30990792 Eh             362.18101 eV
Electronic Energy  :          -53.79038989 Eh           -1463.71092 eV
One Electron Energy:          -79.57767103 Eh           -2165.41852 eV
Two Electron Energy:           25.78728114 Eh             701.70759 eV

Virial components:
Potential Energy   :          -80.53933384 Eh           -2191.58669 eV
Kinetic Energy     :           40.05885186 Eh            1090.05678 eV
Virial Ratio       :            2.01052527


DFT components:
N(Alpha)           :        4.999994951118 electrons
N(Beta)            :        4.999994951118 electrons
N(Total)           :        9.999989902236 electrons
E(X)               :       -5.191241396081 Eh       
E(C)               :       -0.350561019852 Eh       
E(XC)              :       -5.541802415933 Eh       

---------------
SCF CONVERGENCE
---------------

  Last Energy change         ...    9.8132e-09  Tolerance :   1.0000e-08
  Last MAX-Density change    ...    8.8818e-16  Tolerance :   1.0000e-07
  Last RMS-Density change    ...    4.1144e-17  Tolerance :   5.0000e-09
  Last Orbital Gradient      ...    1.9266e-06  Tolerance :   1.0000e-05
  Last Orbital Rotation      ...    3.5810e-06  Tolerance :   1.0000e-05

             **** THE GBW FILE WAS UPDATED (g8raf/frag_01_c00001.gbw) ****
             **** DENSITY FILE WAS UPDATED (g8raf/frag_01_c00001.scfp.tmp) ****
             **** ENERGY FILE WAS UPDATED (g8raf/frag_01_c00001.en.tmp) ****
----------------
ORBITAL ENERGIES
----------------

  NO   OCC          E(Eh)            E(eV) 
   0   2.0000     -10.171064      -276.7687 
   1   2.0000      -0.686699       -18.6860 
   2   2.0000      -0.385135       -10.4801 
   3   2.0000      -0.384816       -10.4714 
   4   2.0000      -0.384800       -10.4709 
   5   0.0000       0.075906         2.0655 
   6   0.0000       0.145061         3.9473 
   7   0.0000       0.145205         3.9512 
   8   0.0000       0.146505         3.9866 
   9   0.0000       0.415157        11.2970 
  10   0.0000       0.416725        11.3397 
  11   0.0000       0.418565        11.3897 
  12   0.0000       0.652536        17.7564 
  13   0.0000       0.653020        17.7696 
  14   0.0000       0.653779        17.7902 
  15   0.0000       0.680200        18.5092 
  16   0.0000       0.904339        24.6083 
  17   0.0000       0.904664        24.6172 
  18   0.0000       1.043538        28.3961 
  19   0.0000       1.417827        38.5810 
  20   0.0000       1.417958        38.5846 
  21   0.0000       1.418613        38.6024 
  22   0.0000       1.612683        43.8833 
  23   0.0000       1.613505        43.9057 
  24   0.0000       1.614265        43.9264 
  25   0.0000       1.922577        52.3160 
  26   0.0000       1.924038        52.3557 
  27   0.0000       1.925073        52.3839 
  28   0.0000       2.235767        60.8383 
  29   0.0000       2.236268        60.8519 
  30   0.0000       2.393613        65.1335 
  31   0.0000       2.429876        66.1203 
  32   0.0000       2.430108        66.1266 
  33   0.0000       2.430841        66.1466 
-------
TIMINGS
-------

Total SCF time: 0 days 0 hours 0 min 1 sec 

Total time                  ....       1.142 sec
Sum of individual times     ....       1.050 sec  ( 92.0%)

Fock matrix formation       ....       0.731 sec  ( 64.0%)
  Split-RI-J                ....       0.455 sec  ( 62.3% of F)
  Chain of spheres X        ....       0.231 sec  ( 31.6% of F)
  XC integration            ....       0.040 sec  (  5.5% of F)
    Basis function eval.    ....       0.014 sec  ( 35.6% of XC)
    Density eval.           ....       0.005 sec  ( 13.0% of XC)
    XC-Functional eval.     ....       0.005 sec  ( 13.5% of XC)
    XC-Potential eval.      ....       0.008 sec  ( 19.1% of XC)
Diagonalization             ....       0.000 sec  (  0.0%)
Density matrix formation    ....       0.003 sec  (  0.3%)
Population analysis         ....       0.000 sec  (  0.0%)
Initial guess               ....       0.001 sec  (  0.1%)
Orbital Transformation      ....       0.000 sec  (  0.0%)
Orbital Orthonormalization  ....       0.000 sec  (  0.0%)
DIIS solution               ....       0.000 sec  (  0.0%)
SOSCF solution              ....       0.076 sec  (  6.6%)
Grid generation             ....       0.240 sec  ( 21.0%)


-------------------------------------------------------------------------------
                          DFT DISPERSION CORRECTION                            
                                                                               
                              DFTD3 V3.1  Rev 1                                
                          USING Becke-Johnson damping                          
-------------------------------------------------------------------------------
The B3LYP functional is recognized
Active option DFTDOPT                   ...         4   

molecular C6(AA) [au] = 127.697398 


            DFT-D V3
 parameters
 s6 scaling factor         :     1.0000 
 a1 scaling factor         :     0.3981 
 s8 scaling factor         :     1.9889 
 a2 scaling factor         :     4.4211 
 ad hoc parameters k1-k3   :    16.0000     1.3333    -4.0000 

 Edisp/kcal,au: -1.200199642105  -0.001912639671 
 E6   /kcal   :  -0.641602875 
 E8   /kcal   :  -0.558596767 
 % E8         :  46.541987507 

-------------------------   ----------------
Dispersion correction           -0.001912640
-------------------------   ----------------


-------------------------   --------------------
FINAL SINGLE POINT ENERGY       -40.482394610680
-------------------------   --------------------

                                *** OPTIMIZATION RUN DONE ***

                            ***************************************
                            *     ORCA property calculations      *
                            ***************************************

                                    ---------------------
                                    Active property flags
                                    ---------------------
   (+) Dipole Moment


------------------------------------------------------------------------------
                       ORCA ELECTRIC PROPERTIES CALCULATION
------------------------------------------------------------------------------

Dipole Moment Calculation                       ... on
Quadrupole Moment Calculation                   ... off
Polarizability Calculation                      ... off
GBWName                                         ... g8raf/frag_01_c00001.gbw
Electron density file                           ... g8raf/frag_01_c00001.scfp.tmp
The origin for moment calculation is the CENTER OF MASS  = (-8.804619, -4.005410  0.005629)

-------------
DIPOLE MOMENT
-------------
                                X             Y             Z
Electronic contribution:     -0.00064       0.00357      -0.00000
Nuclear contribution   :      0.00156      -0.00014       0.00001
                        -----------------------------------------
Total Dipole Moment    :      0.00091       0.00342       0.00000
                        -----------------------------------------
Magnitude (a.u.)       :      0.00354
Magnitude (Debye)      :      0.00900


Timings for individual modules:

Sum of individual times         ...       12.534 sec (=   0.209 min)
GTO integral calculation        ...        2.940 sec (=   0.049 min)  23.5 %
SCF iterations                  ...        7.289 sec (=   0.121 min)  58.2 %
SCF Gradient evaluation         ...        2.217 sec (=   0.037 min)  17.7 %
Geometry relaxation             ...        0.088 sec (=   0.001 min)   0.7 %
                             ****ORCA TERMINATED NORMALLY****
TOTAL RUN TIME: 0 days 0 hours 0 minutes 13 seconds 557 msec
