
                                 *****************
                                 * O   R   C   A *
                                 *****************

           --- An Ab Initio, DFT and Semiempirical electronic structure package ---

                  #######################################################
                  #                        -***-                        #
                  #  Department of molecular theory and spectroscopy    #
                  #              Directorship: Frank Neese              #
                  # Max Planck Institute for Chemical Energy Conversion #
                  #                  D-45470 Muelheim/Ruhr              #
                  #                       Germany                       #
                  #                                                     #
                  #                  All rights reserved                #
                  #                        -***-                        #
                  #######################################################


                         Program Version 4.0.1.2 - RELEASE -


 With contributions from (in alphabetic order):
   Daniel Aravena         : Magnetic Properties
   Michael Atanasov       : Ab Initio Ligand Field Theory
   Ute Becker             : Parallelization
   Martin Brehm           : Molecular dynamics
   Dmytro Bykov           : SCF Hessian
   Vijay G. Chilkuri      : MRCI spin determinant printing
   Dipayan Datta          : RHF DLPNO-CCSD density
   Achintya Kumar Dutta   : EOM-CC, STEOM-CC
   Dmitry Ganyushin       : Spin-Orbit,Spin-Spin,Magnetic field MRCI
   Yang Guo               : DLPNO-NEVPT2, CIM, IAO-localization
   Andreas Hansen         : Spin unrestricted coupled pair/coupled cluster methods
   Lee Huntington         : MR-EOM, pCC
   Robert Izsak           : Overlap fitted RIJCOSX, COSX-SCS-MP3, EOM
   Christian Kollmar      : KDIIS, OOCD, Brueckner-CCSD(T), CCSD density
   Simone Kossmann        : Meta GGA functionals, TD-DFT gradient, OOMP2, MP2 Hessian
   Martin Krupicka        : AUTO-CI
   Dagmar Lenk            : GEPOL surface
   Dimitrios Liakos       : Extrapolation schemes; parallel MDCI
   Dimitrios Manganas     : ROCIS; embedding schemes
   Dimitrios Pantazis     : SARC Basis sets
   Taras Petrenko         : DFT Hessian,TD-DFT gradient, ASA, ECA, R-Raman, ABS, FL, XAS/XES, NRVS
   Peter Pinski           : DLPNO-MP2
   Christoph Reimann      : Effective Core Potentials
   Marius Retegan         : Local ZFS, SOC
   Christoph Riplinger    : Optimizer, TS searches, QM/MM, DLPNO-CCSD(T), (RO)-DLPNO pert. Triples
   Tobias Risthaus        : Range-separated hybrids, TD-DFT gradient, RPA, STAB
   Michael Roemelt        : Restricted open shell CIS
   Masaaki Saitow         : Open-shell DLPNO
   Barbara Sandhoefer     : DKH picture change effects
   Kantharuban Sivalingam : CASSCF convergence, NEVPT2, FIC-MRCI
   Georgi Stoychev        : AutoAux
   Boris Wezisla          : Elementary symmetry handling
   Frank Wennmohs         : Technical directorship


 We gratefully acknowledge several colleagues who have allowed us to
 interface, adapt or use parts of their codes:
   Stefan Grimme, W. Hujo, H. Kruse,             : VdW corrections, initial TS optimization,
                  C. Bannwarth                     DFT functionals, gCP, sTDA/sTD-DF
   Ed Valeev                                     : LibInt (2-el integral package), F12 methods
   Garnet Chan, S. Sharma, J. Yang, R. Olivares  : DMRG
   Ulf Ekstrom                                   : XCFun DFT Library
   Mihaly Kallay                                 : mrcc  (arbitrary order and MRCC methods)
   Andreas Klamt, Michael Diedenhofen            : otool_cosmo (COSMO solvation model)
   Jiri Pittner, Ondrej Demel                    : Mk-CCSD
   Frank Weinhold                                : gennbo (NPA and NBO analysis)
   Christopher J. Cramer and Donald G. Truhlar   : smd solvation model


 Your calculation uses the libint2 library for the computation of 2-el integrals
 For citations please refer to: http://libint.valeyev.net

 This ORCA versions uses:
   CBLAS   interface :  Fast vector & matrix operations
   LAPACKE interface :  Fast linear algebra routines
   SCALAPACK package :  Parallel linear algebra routines


Your calculation utilizes the atom-pairwise dispersion correction
with the Becke-Johnson damping scheme (D3BJ)
Cite in your paper:
S.Grimme, S.Ehrlich, L.Goerigk, J Comput Chem, (2011), 32, 1456–1465 
S.Grimme, J.Antony, S.Ehrlich and H.Krieg, J.Chem.Phys., 132, (2010), 154104 
   

Your calculation utilizes the basis: cc-pVDZ 
       H, B-Ne : Obtained from the ccRepo (grant-hill.group.shef.ac.uk/ccrepo) Feb. 2017
                 T. H. Dunning, Jr., J. Chem. Phys. 90, 1007 (1989)
            He : Obtained from the ccRepo (grant-hill.group.shef.ac.uk/ccrepo) Feb. 2017
                 D. E. Woon, T. H. Dunning, Jr., J. Chem. Phys. 100, 2975 (1994)
  Li-Be, Na-Mg : Obtained from the ccRepo (grant-hill.group.shef.ac.uk/ccrepo) Feb. 2017
                 B. P. Prascher, D. E. Woon, K. A. Peterson, T. H. Dunning, Jr., A. K. Wilson, Theor. Chem. Acc. 128, 69 (2011)
         Al-Ar : Obtained from the ccRepo (grant-hill.group.shef.ac.uk/ccrepo) Feb. 2017
                 D. E. Woon, T. H. Dunning, Jr., J. Chem. Phys. 98, 1358 (1993)
            Ca : Obtained from the Peterson Research Group Website (tyr0.chem.wsu.edu/~kipeters) Feb. 2017
                 J. Koput, K. A. Peterson, J. Phys. Chem. 106, 9595 (2002)
         Sc-Zn : Obtained from the ccRepo (grant-hill.group.shef.ac.uk/ccrepo) Feb. 2017
                 N. B. Balabanov, K. A. Peterson, J. Chem. Phys. 123, 064107 (2005)
                 N. B. Balabanov, K. A. Peterson, J. Chem. Phys. 125, 074110 (2006)
         Ga-Kr : Obtained from the ccRepo (grant-hill.group.shef.ac.uk/ccrepo) Feb. 2017
                 A. K. Wilson, D. E. Woon, K. A. Peterson, T. H. Dunning, Jr., J. Chem. Phys. 110, 7667 (1999)

Your calculation utilizes the auxiliary basis: def2/J
   F. Weigend, Phys. Chem. Chem. Phys. 8, 1057 (2006).

================================================================================
                                        WARNINGS
                       Please study these warnings very carefully!
================================================================================

Warning: TCutStore was < 0. Adjusted to Thresh (uncritical)

WARNING: Geometry Optimization
  ===> : Switching off AutoStart
         For restart on a previous wavefunction, please use MOREAD

INFO   : the flag for use of LIBINT has been found!

================================================================================
                                       INPUT FILE
================================================================================
NAME = AT-v/e/frag_24_c00001.com
|  1> %pal nprocs 6 end
|  2> %maxcore 1000
|  3> ! b3lyp TIGHTSCF nopop D3BJ
|  4> ! cc-pvdz def2/J RIJCOSX
|  5> ! Opt
|  6> 
|  7> %geom
|  8> maxiter 60
|  9> TolE 1e-4
| 10> TolRMSG 2e-3
| 11> TolMaxG 3e-3
| 12> TolRMSD 2e-2
| 13> TolMaxD 3e-2
| 14> end
| 15> 
| 16> *xyz 0 1
| 17> N 3.7621 -1.7642 -0.1129
| 18> C 3.1462 -0.6303 -0.1344
| 19> C 1.6314 -0.5867 -0.2362
| 20> N 0.9586 -1.766 -0.3043
| 21> N 1.015 0.5525 -0.2564
| 22> N -1.8302 0.4939 0.1061
| 23> C -2.4281 -0.7195 0.2036
| 24> O -1.7576 -1.7383 0.3544
| 25> C -3.9222 -0.7729 0.1216
| 26> C -4.4928 -2.1594 0.24
| 27> C -4.7097 0.3051 -0.043
| 28> H 4.7734 -1.604 -0.0463
| 29> H 3.6627 0.3406 -0.0854
| 30> H 1.4736 -2.5726 0.0301
| 31> H -0.0243 -1.749 -0.0183
| 32> H 1.6862 1.3267 -0.2031
| 33> H -2.2997 1.3438 -0.163
| 34> H -0.809 0.5069 0.025
| 35> H -4.1242 -2.793 -0.5748
| 36> H -5.5851 -2.1614 0.1812
| 37> H -4.2111 -2.6115 1.1978
| 38> H -4.3382 1.32 -0.1254
| 39> H -5.7895 0.198 -0.0974
| 40> *
| 41> 
| 42> 
| 43>                          ****END OF INPUT****
================================================================================

                       *****************************
                       * Geometry Optimization Run *
                       *****************************

Geometry optimization settings:
Update method            Update   .... BFGS
Choice of coordinates    CoordSys .... Redundant Internals
Initial Hessian          InHess   .... Almoef's Model

Convergence Tolerances:
Energy Change            TolE     ....  1.0000e-04 Eh
Max. Gradient            TolMAXG  ....  3.0000e-03 Eh/bohr
RMS Gradient             TolRMSG  ....  2.0000e-03 Eh/bohr
Max. Displacement        TolMAXD  ....  3.0000e-02 bohr
RMS Displacement         TolRMSD  ....  2.0000e-02 bohr

------------------------------------------------------------------------------
                        ORCA OPTIMIZATION COORDINATE SETUP
------------------------------------------------------------------------------

The optimization will be done in new redundant internal coordinates
Making redundant internal coordinates   ...  (new redundants) done
Evaluating the initial hessian          ...  (Almloef) done
Evaluating the coordinates              ...  done
Calculating the B-matrix                .... done
Calculating the G-matrix                .... done
Diagonalizing the G-matrix              .... done
Small eigenvalue found = 1.141e-02
The first mode is                       ....   36
The number of degrees of freedom        ....   63

    -----------------------------------------------------------------
                    Redundant Internal Coordinates


    -----------------------------------------------------------------
         Definition                    Initial Value    Approx d2E/dq
    -----------------------------------------------------------------
      1. B(C   1,N   0)                  1.2906         0.806378   
      2. B(C   2,C   1)                  1.5188         0.389205   
      3. B(N   3,C   2)                  1.3594         0.626109   
      4. B(N   4,C   2)                  1.2954         0.792062   
      5. B(C   6,N   5)                  1.3562         0.633535   
      6. B(O   7,C   6)                  1.2289         1.011243   
      7. B(C   8,C   6)                  1.4973         0.421256   
      8. B(C   9,C   8)                  1.5040         0.411032   
      9. B(C  10,C   8)                  1.3451         0.736801   
     10. B(H  11,N   0)                  1.0261         0.407897   
     11. B(H  12,C   1)                  1.1008         0.346058   
     12. B(H  13,N   3)                  1.0137         0.426817   
     13. B(H  14,N   3)                  1.0238         0.411310   
     14. B(H  14,O   7)                  1.7729         0.026240   
     15. B(H  15,N   4)                  1.0260         0.407964   
     16. B(H  16,N   5)                  1.0076         0.436606   
     17. B(H  17,N   4)                  1.8461         0.020053   
     18. B(H  17,N   5)                  1.0245         0.410265   
     19. B(H  18,C   9)                  1.0960         0.352251   
     20. B(H  19,C   9)                  1.0939         0.354999   
     21. B(H  20,C   9)                  1.0960         0.352300   
     22. B(H  21,C  10)                  1.0839         0.368270   
     23. B(H  22,C  10)                  1.0865         0.364812   
     24. A(C   1,N   0,H  11)          109.5282         0.371398   
     25. A(N   0,C   1,C   2)          120.1527         0.415874   
     26. A(N   0,C   1,H  12)          123.3847         0.364291   
     27. A(C   2,C   1,H  12)          116.4623         0.324383   
     28. A(C   1,C   2,N   4)          120.0563         0.414552   
     29. A(N   3,C   2,N   4)          121.7762         0.448554   
     30. A(C   1,C   2,N   3)          118.1676         0.397681   
     31. A(C   2,N   3,H  14)          116.5348         0.356183   
     32. A(H  13,N   3,H  14)          114.1288         0.300156   
     33. A(C   2,N   3,H  13)          114.9794         0.358430   
     34. A(C   2,N   4,H  17)          116.4888         0.231223   
     35. A(H  15,N   4,H  17)          131.0750         0.194490   
     36. A(C   2,N   4,H  15)          110.5777         0.370266   
     37. A(H  16,N   5,H  17)          115.6347         0.301120   
     38. A(C   6,N   5,H  17)          117.1604         0.356743   
     39. A(C   6,N   5,H  16)          124.6433         0.360541   
     40. A(O   7,C   6,C   8)          121.4386         0.439278   
     41. A(N   5,C   6,C   8)          117.8972         0.404099   
     42. A(N   5,C   6,O   7)          120.6642         0.470010   
     43. A(C   6,O   7,H  14)          120.8374         0.248740   
     44. A(C   9,C   8,C  10)          121.7579         0.415936   
     45. A(C   6,C   8,C  10)          124.2164         0.417760   
     46. A(C   6,C   8,C   9)          114.0257         0.377076   
     47. A(H  19,C   9,H  20)          107.6310         0.289194   
     48. A(H  18,C   9,H  20)          108.9529         0.288842   
     49. A(C   8,C   9,H  20)          110.5835         0.328275   
     50. A(H  18,C   9,H  19)          107.1460         0.289188   
     51. A(C   8,C   9,H  19)          112.1044         0.328688   
     52. A(C   8,C   9,H  18)          110.2930         0.328267   
     53. A(H  21,C  10,H  22)          115.4130         0.292465   
     54. A(C   8,C  10,H  22)          120.5965         0.364231   
     55. A(C   8,C  10,H  21)          123.9899         0.364820   
     56. L(N   3,H  14,O   7,C   2, 2) 173.3128         0.201317   
     57. L(N   3,H  14,O   7,C   2, 1) 181.2598         0.201317   
     58. L(N   4,H  17,N   5,C   6, 2) 187.2148         0.194624   
     59. L(N   4,H  17,N   5,C   6, 1) 180.6512         0.194624   
     60. D(H  12,C   1,N   0,H  11)     -0.0762         0.050211   
     61. D(C   2,C   1,N   0,H  11)    179.7201         0.050211   
     62. D(N   4,C   2,C   1,N   0)    179.9368         0.010450   
     63. D(N   3,C   2,C   1,H  12)    179.7372         0.010450   
     64. D(N   3,C   2,C   1,N   0)     -0.0727         0.010450   
     65. D(N   4,C   2,C   1,H  12)     -0.2533         0.010450   
     66. D(H  13,N   3,C   2,C   1)     19.9897         0.031792   
     67. D(H  14,N   3,C   2,C   1)    157.4406         0.031792   
     68. D(H  13,N   3,C   2,N   4)   -160.0200         0.031792   
     69. D(H  14,N   3,C   2,N   4)    -22.5691         0.031792   
     70. D(H  17,N   4,C   2,N   3)     14.1922         0.053357   
     71. D(H  15,N   4,C   2,N   3)   -179.5840         0.053357   
     72. D(H  15,N   4,C   2,C   1)      0.4061         0.053357   
     73. D(H  17,N   4,C   2,C   1)   -165.8177         0.053357   
     74. D(C   6,N   5,N   4,C   2)     -3.8529         0.001500   
     75. D(H  16,N   5,N   4,H  15)     31.0711         0.001500   
     76. D(H  16,N   5,N   4,C   2)   -164.0533         0.001500   
     77. D(C   6,N   5,N   4,H  15)   -168.7285         0.001500   
     78. D(C   8,C   6,N   5,H  17)   -171.2509         0.032613   
     79. D(C   8,C   6,N   5,H  16)    -10.2467         0.032613   
     80. D(O   7,C   6,N   5,H  17)      8.7494         0.032613   
     81. D(O   7,C   6,N   5,H  16)    169.7536         0.032613   
     82. D(H  14,O   7,C   6,C   8)    161.9315         0.084058   
     83. D(H  14,O   7,C   6,N   5)    -18.0688         0.084058   
     84. D(C   6,O   7,N   3,H  13)    167.6531         0.001501   
     85. D(C   6,O   7,N   3,C   2)     27.4738         0.001501   
     86. D(C  10,C   8,C   6,O   7)   -179.9770         0.012142   
     87. D(C  10,C   8,C   6,N   5)      0.0232         0.012142   
     88. D(C   9,C   8,C   6,O   7)      0.0151         0.012142   
     89. D(C   9,C   8,C   6,N   5)   -179.9846         0.012142   
     90. D(H  18,C   9,C   8,C   6)    -60.9887         0.012511   
     91. D(H  20,C   9,C   8,C  10)   -120.4146         0.012511   
     92. D(H  20,C   9,C   8,C   6)     59.5930         0.012511   
     93. D(H  19,C   9,C   8,C  10)     -0.2998         0.012511   
     94. D(H  19,C   9,C   8,C   6)    179.7079         0.012511   
     95. D(H  18,C   9,C   8,C  10)    119.0037         0.012511   
     96. D(H  22,C  10,C   8,C   9)     -0.1530         0.038585   
     97. D(H  22,C  10,C   8,C   6)    179.8386         0.038585   
     98. D(H  21,C  10,C   8,C   9)    179.5579         0.038585   
     99. D(H  21,C  10,C   8,C   6)     -0.4506         0.038585   
    -----------------------------------------------------------------

Number of atoms                         .... 23
Number of degrees of freedom            .... 99

         *************************************************************
         *                GEOMETRY OPTIMIZATION CYCLE   1            *
         *************************************************************
---------------------------------
CARTESIAN COORDINATES (ANGSTROEM)
---------------------------------
  N      3.762100   -1.764200   -0.112900
  C      3.146200   -0.630300   -0.134400
  C      1.631400   -0.586700   -0.236200
  N      0.958600   -1.766000   -0.304300
  N      1.015000    0.552500   -0.256400
  N     -1.830200    0.493900    0.106100
  C     -2.428100   -0.719500    0.203600
  O     -1.757600   -1.738300    0.354400
  C     -3.922200   -0.772900    0.121600
  C     -4.492800   -2.159400    0.240000
  C     -4.709700    0.305100   -0.043000
  H      4.773400   -1.604000   -0.046300
  H      3.662700    0.340600   -0.085400
  H      1.473600   -2.572600    0.030100
  H     -0.024300   -1.749000   -0.018300
  H      1.686200    1.326700   -0.203100
  H     -2.299700    1.343800   -0.163000
  H     -0.809000    0.506900    0.025000
  H     -4.124200   -2.793000   -0.574800
  H     -5.585100   -2.161400    0.181200
  H     -4.211100   -2.611500    1.197800
  H     -4.338200    1.320000   -0.125400
  H     -5.789500    0.198000   -0.097400

----------------------------
CARTESIAN COORDINATES (A.U.)
----------------------------
  NO LB      ZA    FRAG     MASS         X           Y           Z
   0 N     7.0000    0    14.007    7.109339   -3.333855   -0.213350
   1 C     6.0000    0    12.011    5.945456   -1.191094   -0.253979
   2 C     6.0000    0    12.011    3.082899   -1.108702   -0.446353
   3 N     7.0000    0    14.007    1.811491   -3.337256   -0.575044
   4 N     7.0000    0    14.007    1.918072    1.044074   -0.484526
   5 N     7.0000    0    14.007   -3.458577    0.933336    0.200500
   6 C     6.0000    0    12.011   -4.588444   -1.359658    0.384748
   7 O     8.0000    0    15.999   -3.321383   -3.284911    0.669719
   8 C     6.0000    0    12.011   -7.411884   -1.460569    0.229791
   9 C     6.0000    0    12.011   -8.490162   -4.080675    0.453534
  10 C     6.0000    0    12.011   -8.900043    0.576555   -0.081258
  11 H     1.0000    0     1.008    9.020419   -3.031121   -0.087494
  12 H     1.0000    0     1.008    6.921500    0.643641   -0.161383
  13 H     1.0000    0     1.008    2.784700   -4.861509    0.056881
  14 H     1.0000    0     1.008   -0.045920   -3.305131   -0.034582
  15 H     1.0000    0     1.008    3.186456    2.507100   -0.383803
  16 H     1.0000    0     1.008   -4.345803    2.539414   -0.308025
  17 H     1.0000    0     1.008   -1.528788    0.957902    0.047243
  18 H     1.0000    0     1.008   -7.793609   -5.278005   -1.086215
  19 H     1.0000    0     1.008  -10.554309   -4.084454    0.342418
  20 H     1.0000    0     1.008   -7.957826   -4.935020    2.263514
  21 H     1.0000    0     1.008   -8.198010    2.494438   -0.236972
  22 H     1.0000    0     1.008  -10.940569    0.374166   -0.184059

--------------------------------
INTERNAL COORDINATES (ANGSTROEM)
--------------------------------
 N      0   0   0     0.000000000000     0.00000000     0.00000000
 C      1   0   0     1.290551924566     0.00000000     0.00000000
 C      2   1   0     1.518842730502   120.15265636     0.00000000
 N      3   2   1     1.359428534348   118.16755777   359.92728453
 N      3   2   1     1.295427975613   120.05625485   179.93682021
 N      5   3   2     2.868798223996   116.87076701   192.52558555
 C      6   5   3     1.356219089970   117.68377341   356.14709185
 O      7   6   5     1.228928122390   120.66415435    11.79741546
 C      7   6   5     1.497301028518   117.89721411   191.79714634
 C      9   7   6     1.503989750630   114.02571398   180.01537847
 C      9   7   6     1.345114645672   124.21639043     0.02324808
 H      1   2   3     1.026073725421   109.52815227   179.72005402
 H      2   1   3     1.100826989131   123.38472488   180.20379531
 H      4   3   2     1.013731680476   114.97937215    19.98971951
 H      4   3   2     1.023805357478   116.53481204   157.44058128
 H      5   3   2     1.026029224730   110.57766847     0.40609082
 H      6   5   3     1.007558966016   114.27810268   195.94672508
 H      6   5   3     1.024497755000     2.75562943    75.90287168
 H     10   9   7     1.095999069343   110.29303736   299.01133138
 H     10   9   7     1.093883325588   112.10441003   179.70785289
 H     10   9   7     1.095960829592   110.58353859    59.59302089
 H     11   9   7     1.083892992873   123.98994720   359.54944324
 H     11   9   7     1.086461140584   120.59646026   179.83856597

---------------------------
INTERNAL COORDINATES (A.U.)
---------------------------
 N      0   0   0     0.000000000000     0.00000000     0.00000000
 C      1   0   0     2.438789699034     0.00000000     0.00000000
 C      2   1   0     2.870196801147   120.15265636     0.00000000
 N      3   2   1     2.568947628556   118.16755777   359.92728453
 N      3   2   1     2.448004100128   120.05625485   179.93682021
 N      5   3   2     5.421242976831   116.87076701   192.52558555
 C      6   5   3     2.562882657640   117.68377341   356.14709185
 O      7   6   5     2.322337589590   120.66415435    11.79741546
 C      7   6   5     2.829488883937   117.89721411   191.79714634
 C      9   7   6     2.842128736915   114.02571398   180.01537847
 C      9   7   6     2.541898299046   124.21639043     0.02324808
 H      1   2   3     1.938998334259   109.52815227   179.72005402
 H      2   1   3     2.080261530287   123.38472488   180.20379531
 H      4   3   2     1.915675249379   114.97937215    19.98971951
 H      4   3   2     1.934711740074   116.53481204   157.44058128
 H      5   3   2     1.938914240139   110.57766847     0.40609082
 H      6   5   3     1.904010509548   114.27810268   195.94672508
 H      6   5   3     1.936020181767     2.75562943    75.90287168
 H     10   9   7     2.071138084090   110.29303736   299.01133138
 H     10   9   7     2.067139907825   112.10441003   179.70785289
 H     10   9   7     2.071065821434   110.58353859    59.59302089
 H     11   9   7     2.048260915007   123.98994720   359.54944324
 H     11   9   7     2.053114010852   120.59646026   179.83856597

---------------------
BASIS SET INFORMATION
---------------------
There are 4 groups of distinct atoms

 Group   1 Type N   : 17s4p1d contracted to 3s2p1d pattern {881/31/1}
 Group   2 Type C   : 17s4p1d contracted to 3s2p1d pattern {881/31/1}
 Group   3 Type O   : 17s4p1d contracted to 3s2p1d pattern {881/31/1}
 Group   4 Type H   : 4s1p contracted to 2s1p pattern {31/1}

Atom   0N    basis set group =>   1
Atom   1C    basis set group =>   2
Atom   2C    basis set group =>   2
Atom   3N    basis set group =>   1
Atom   4N    basis set group =>   1
Atom   5N    basis set group =>   1
Atom   6C    basis set group =>   2
Atom   7O    basis set group =>   3
Atom   8C    basis set group =>   2
Atom   9C    basis set group =>   2
Atom  10C    basis set group =>   2
Atom  11H    basis set group =>   4
Atom  12H    basis set group =>   4
Atom  13H    basis set group =>   4
Atom  14H    basis set group =>   4
Atom  15H    basis set group =>   4
Atom  16H    basis set group =>   4
Atom  17H    basis set group =>   4
Atom  18H    basis set group =>   4
Atom  19H    basis set group =>   4
Atom  20H    basis set group =>   4
Atom  21H    basis set group =>   4
Atom  22H    basis set group =>   4
-------------------------------
AUXILIARY BASIS SET INFORMATION
-------------------------------
There are 4 groups of distinct atoms

 Group   1 Type N   : 12s5p4d2f1g contracted to 6s4p3d1f1g pattern {711111/2111/211/2/1}
 Group   2 Type C   : 12s5p4d2f1g contracted to 6s4p3d1f1g pattern {711111/2111/211/2/1}
 Group   3 Type O   : 12s5p4d2f1g contracted to 6s4p3d1f1g pattern {711111/2111/211/2/1}
 Group   4 Type H   : 5s2p1d contracted to 3s1p1d pattern {311/2/1}

Atom   0N    basis set group =>   1
Atom   1C    basis set group =>   2
Atom   2C    basis set group =>   2
Atom   3N    basis set group =>   1
Atom   4N    basis set group =>   1
Atom   5N    basis set group =>   1
Atom   6C    basis set group =>   2
Atom   7O    basis set group =>   3
Atom   8C    basis set group =>   2
Atom   9C    basis set group =>   2
Atom  10C    basis set group =>   2
Atom  11H    basis set group =>   4
Atom  12H    basis set group =>   4
Atom  13H    basis set group =>   4
Atom  14H    basis set group =>   4
Atom  15H    basis set group =>   4
Atom  16H    basis set group =>   4
Atom  17H    basis set group =>   4
Atom  18H    basis set group =>   4
Atom  19H    basis set group =>   4
Atom  20H    basis set group =>   4
Atom  21H    basis set group =>   4
Atom  22H    basis set group =>   4


           ************************************************************
           *        Program running with 6 parallel MPI-processes     *
           *              working on a common directory               *
           ************************************************************
------------------------------------------------------------------------------
                           ORCA GTO INTEGRAL CALCULATION
                           -- RI-GTO INTEGRALS CHOSEN --
------------------------------------------------------------------------------

                         BASIS SET STATISTICS AND STARTUP INFO

Gaussian basis set:
 # of primitive gaussian shells          ...  302
 # of primitive gaussian functions       ...  458
 # of contracted shells                  ...  102
 # of contracted basis functions         ...  214
 Highest angular momentum                ...    2
 Maximum contraction depth               ...    8
Auxiliary gaussian basis set:
 # of primitive gaussian shells          ...  360
 # of primitive gaussian functions       ...  962
 # of contracted shells                  ...  225
 # of contracted aux-basis functions     ...  671
 Highest angular momentum                ...    4
 Maximum contraction depth               ...    7
Ratio of auxiliary to basis functions    ...  3.14
Integral package used                  ... LIBINT
 One Electron integrals                  ... done
 Ordering auxiliary basis shells         ... done
 Integral threshhold             Thresh  ...  2.500e-11
 Primitive cut-off               TCut    ...  2.500e-12
 Pre-screening matrix                    ... done
 Shell pair data                         ... 
 Ordering of the shell pairs             ... done (   0.001 sec) 4312 of 5253 pairs
 Determination of significant pairs      ... done (   0.000 sec)
 Creation of shell pair data             ... done (   0.002 sec)
 Storage of shell pair data              ... done (   0.003 sec)
 Shell pair data done in (   0.006 sec)
 Computing two index integrals           ... done
 Cholesky decomposition of the V-matrix  ... done


Timings:
 Total evaluation time                   ...   0.412 sec (  0.007 min)
 One electron matrix time                ...   0.072 sec (  0.001 min) = 17.5%
 Schwartz matrix evaluation time         ...   0.223 sec (  0.004 min) = 54.1%
 Two index repulsion integral time       ...   0.078 sec (  0.001 min) = 18.9%
 Cholesky decomposition of V             ...   0.016 sec (  0.000 min) =  3.8%
 Three index repulsion integral time     ...   0.000 sec (  0.000 min) =  0.0%



           ************************************************************
           *        Program running with 6 parallel MPI-processes     *
           *              working on a common directory               *
           ************************************************************
-------------------------------------------------------------------------------
                                 ORCA SCF
-------------------------------------------------------------------------------

------------
SCF SETTINGS
------------
Hamiltonian:
 Density Functional     Method          .... DFT(GTOs)
 Exchange Functional    Exchange        .... B88
   X-Alpha parameter    XAlpha          ....  0.666667
   Becke's b parameter  XBeta           ....  0.004200
 Correlation Functional Correlation     .... LYP
 LDA part of GGA corr.  LDAOpt          .... VWN-5
 Gradients option       PostSCFGGA      .... off
 Hybrid DFT is turned on
   Fraction HF Exchange ScalHFX         ....  0.200000
   Scaling of DF-GGA-X  ScalDFX         ....  0.720000
   Scaling of DF-GGA-C  ScalDFC         ....  0.810000
   Scaling of DF-LDA-C  ScalLDAC        ....  1.000000
   Perturbative correction              ....  0.000000
   NL short-range parameter             ....  4.800000
 RI-approximation to the Coulomb term is turned on
   Number of auxiliary basis functions  .... 671
   RIJ-COSX (HFX calculated with COS-X)).... on


General Settings:
 Integral files         IntName         .... AT-v/e/frag_24_c00001
 Hartree-Fock type      HFTyp           .... RHF
 Total Charge           Charge          ....    0
 Multiplicity           Mult            ....    1
 Number of Electrons    NEL             ....   84
 Basis Dimension        Dim             ....  214
 Nuclear Repulsion      ENuc            ....    577.8268238271 Eh

Convergence Acceleration:
 DIIS                   CNVDIIS         .... on
   Start iteration      DIISMaxIt       ....    12
   Startup error        DIISStart       ....  0.200000
   # of expansion vecs  DIISMaxEq       ....     5
   Bias factor          DIISBfac        ....   1.050
   Max. coefficient     DIISMaxC        ....  10.000
 Newton-Raphson         CNVNR           .... off
 SOSCF                  CNVSOSCF        .... on
   Start iteration      SOSCFMaxIt      ....   150
   Startup grad/error   SOSCFStart      ....  0.003300
 Level Shifting         CNVShift        .... on
   Level shift para.    LevelShift      ....    0.2500
   Turn off err/grad.   ShiftErr        ....    0.0010
 Zerner damping         CNVZerner       .... off
 Static damping         CNVDamp         .... on
   Fraction old density DampFac         ....    0.7000
   Max. Damping (<1)    DampMax         ....    0.9800
   Min. Damping (>=0)   DampMin         ....    0.0000
   Turn off err/grad.   DampErr         ....    0.1000
 Fernandez-Rico         CNVRico         .... off

SCF Procedure:
 Maximum # iterations   MaxIter         ....   125
 SCF integral mode      SCFMode         .... Direct
   Integral package                     .... LIBINT
 Reset frequeny         DirectResetFreq ....    20
 Integral Threshold     Thresh          ....  2.500e-11 Eh
 Primitive CutOff       TCut            ....  2.500e-12 Eh

Convergence Tolerance:
 Convergence Check Mode ConvCheckMode   .... Total+1el-Energy
 Convergence forced     ConvForced      .... 0
 Energy Change          TolE            ....  1.000e-08 Eh
 1-El. energy change                    ....  1.000e-05 Eh
 Orbital Gradient       TolG            ....  1.000e-05
 Orbital Rotation angle TolX            ....  1.000e-05
 DIIS Error             TolErr          ....  5.000e-07


Diagonalization of the overlap matrix:
Smallest eigenvalue                        ... 1.690e-03
Time for diagonalization                   ...    0.012 sec
Threshold for overlap eigenvalues          ... 1.000e-08
Number of eigenvalues below threshold      ... 0
Time for construction of square roots      ...    0.006 sec
Total time needed                          ...    0.018 sec

-------------------
DFT GRID GENERATION
-------------------

General Integration Accuracy     IntAcc      ...  4.340
Radial Grid Type                 RadialGrid  ... Gauss-Chebyshev
Angular Grid (max. acc.)         AngularGrid ... Lebedev-110
Angular grid pruning method      GridPruning ... 3 (G Style)
Weight generation scheme         WeightScheme... Becke
Basis function cutoff            BFCut       ...    1.0000e-11
Integration weight cutoff        WCut        ...    1.0000e-14
Grids for H and He will be reduced by one unit

# of grid points (after initial pruning)     ...  27988 (   0.0 sec)
# of grid points (after weights+screening)   ...  25891 (   0.0 sec)
nearest neighbour list constructed           ...    0.0 sec
Grid point re-assignment to atoms done       ...    0.0 sec
Grid point division into batches done        ...    0.0 sec
Reduced shell lists constructed in    0.1 sec

Total number of grid points                  ...    25891
Total number of batches                      ...      416
Average number of points per batch           ...       62
Average number of grid points per atom       ...     1126
Average number of shells per batch           ...    60.55 (59.36%)
Average number of basis functions per batch  ...   122.13 (57.07%)
Average number of large shells per batch     ...    42.56 (70.30%)
Average number of large basis fcns per batch ...    87.52 (71.66%)
Maximum spatial batch extension              ...   6.79, 11.28, 22.17 au
Average spatial batch extension              ...   0.34,  0.40,  0.63 au

Time for grid setup =    0.140 sec

------------------------------
INITIAL GUESS: MODEL POTENTIAL
------------------------------
Loading Hartree-Fock densities                     ... done
Calculating cut-offs                               ... done
Setting up the integral package                    ... done
Initializing the effective Hamiltonian             ... done
Starting the Coulomb interaction                   ... done (   0.1 sec)
Reading the grid                                   ... done
Mapping shells                                     ... done
Starting the XC term evaluation                    ... done (   0.1 sec)
  promolecular density results
     # of electrons  =     84.014840313
     EX              =    -68.845755553
     EC              =     -2.828627094
     EX+EC           =    -71.674382647
Transforming the Hamiltonian                       ... done (   0.0 sec)
Diagonalizing the Hamiltonian                      ... done (   0.0 sec)
Back transforming the eigenvectors                 ... done (   0.0 sec)
Now organizing SCF variables                       ... done
                      ------------------
                      INITIAL GUESS DONE (   0.5 sec)
                      ------------------
--------------------
COSX GRID GENERATION
--------------------

General Integration Accuracy     IntAcc      ...  3.340
Radial Grid Type                 RadialGrid  ... Gauss-Chebyshev
Angular Grid (max. acc.)         AngularGrid ... Lebedev-50
Angular grid pruning method      GridPruning ... 3 (G Style)
Weight generation scheme         WeightScheme... Becke
Basis function cutoff            BFCut       ...    1.0000e-11
Integration weight cutoff        WCut        ...    1.0000e-14
Grids for H and He will be reduced by one unit

# of grid points (after initial pruning)     ...  10164 (   0.0 sec)
# of grid points (after weights+screening)   ...   9479 (   0.0 sec)
nearest neighbour list constructed           ...    0.0 sec
Grid point re-assignment to atoms done       ...    0.0 sec
Grid point division into batches done        ...    0.0 sec
Reduced shell lists constructed in    0.0 sec

Total number of grid points                  ...     9479
Total number of batches                      ...      158
Average number of points per batch           ...       59
Average number of grid points per atom       ...      412
Average number of shells per batch           ...    61.61 (60.40%)
Average number of basis functions per batch  ...   124.25 (58.06%)
Average number of large shells per batch     ...    43.39 (70.43%)
Average number of large basis fcns per batch ...    89.25 (71.83%)
Maximum spatial batch extension              ...   4.43, 10.41, 35.81 au
Average spatial batch extension              ...   0.41,  0.54,  1.05 au

Overlap Fitting                  UseSFitting ... on
Constructing numerical overlap ... done (      0.0 sec)
Inverting numerical overlap    ... done (      0.0 sec)
Obtaining analytic overlap     ... done (      0.0 sec)
Final contraction and storage  ... done (      0.0 sec)


General Integration Accuracy     IntAcc      ...  3.670
Radial Grid Type                 RadialGrid  ... Gauss-Chebyshev
Angular Grid (max. acc.)         AngularGrid ... Lebedev-50
Angular grid pruning method      GridPruning ... 3 (G Style)
Weight generation scheme         WeightScheme... Becke
Basis function cutoff            BFCut       ...    1.0000e-11
Integration weight cutoff        WCut        ...    1.0000e-14
Grids for H and He will be reduced by one unit

# of grid points (after initial pruning)     ...  13022 (   0.0 sec)
# of grid points (after weights+screening)   ...  12106 (   0.0 sec)
nearest neighbour list constructed           ...    0.0 sec
Grid point re-assignment to atoms done       ...    0.0 sec
Grid point division into batches done        ...    0.0 sec
Reduced shell lists constructed in    0.0 sec

Total number of grid points                  ...    12106
Total number of batches                      ...      202
Average number of points per batch           ...       59
Average number of grid points per atom       ...      526
Average number of shells per batch           ...    62.86 (61.62%)
Average number of basis functions per batch  ...   127.31 (59.49%)
Average number of large shells per batch     ...    43.80 (69.68%)
Average number of large basis fcns per batch ...    90.26 (70.89%)
Maximum spatial batch extension              ...   5.29, 10.03, 26.68 au
Average spatial batch extension              ...   0.38,  0.47,  0.86 au

Overlap Fitting                  UseSFitting ... on
Constructing numerical overlap ... done (      0.0 sec)
Inverting numerical overlap    ... done (      0.0 sec)
Obtaining analytic overlap     ... done (      0.0 sec)
Final contraction and storage  ... done (      0.0 sec)


General Integration Accuracy     IntAcc      ...  4.010
Radial Grid Type                 RadialGrid  ... Gauss-Chebyshev
Angular Grid (max. acc.)         AngularGrid ... Lebedev-110
Angular grid pruning method      GridPruning ... 3 (G Style)
Weight generation scheme         WeightScheme... Becke
Basis function cutoff            BFCut       ...    1.0000e-11
Integration weight cutoff        WCut        ...    1.0000e-14
Grids for H and He will be reduced by one unit

# of grid points (after initial pruning)     ...  24118 (   0.0 sec)
# of grid points (after weights+screening)   ...  22363 (   0.0 sec)
nearest neighbour list constructed           ...    0.0 sec
Grid point re-assignment to atoms done       ...    0.0 sec
Grid point division into batches done        ...    0.0 sec
Reduced shell lists constructed in    0.1 sec

Total number of grid points                  ...    22363
Total number of batches                      ...      363
Average number of points per batch           ...       61
Average number of grid points per atom       ...      972
Average number of shells per batch           ...    61.13 (59.93%)
Average number of basis functions per batch  ...   123.39 (57.66%)
Average number of large shells per batch     ...    42.76 (69.95%)
Average number of large basis fcns per batch ...    87.82 (71.18%)
Maximum spatial batch extension              ...   6.76, 11.01, 22.32 au
Average spatial batch extension              ...   0.37,  0.43,  0.70 au

Overlap Fitting                  UseSFitting ... on
Constructing numerical overlap ... done (      0.0 sec)
Inverting numerical overlap    ... done (      0.0 sec)
Obtaining analytic overlap     ... done (      0.0 sec)
Final contraction and storage  ... done (      0.0 sec)

Time for X-Grid setup             =    0.415 sec
--------------
SCF ITERATIONS
--------------
ITER       Energy         Delta-E        Max-DP      RMS-DP      [F,P]     Damp
               ***  Starting incremental Fock matrix formation  ***
  0   -529.3479308492   0.000000000000 0.09125304  0.00241247  0.2632008 0.7000
  1   -529.5687950035  -0.220864154372 0.05712522  0.00159467  0.1142387 0.7000
                               ***Turning on DIIS***
  2   -529.6486309672  -0.079835963687 0.07823669  0.00229774  0.0430415 0.0000
  3   -529.7744684377  -0.125837470417 0.03752912  0.00110115  0.0663222 0.0000
  4   -529.8036548712  -0.029186433579 0.01182541  0.00032556  0.0150196 0.0000
  5   -529.8058284437  -0.002173572504 0.00362843  0.00010840  0.0047967 0.0000
                      *** Initiating the SOSCF procedure ***
                           *** Shutting down DIIS ***
                      *** Re-Reading the Fockian *** 
                      *** Removing any level shift *** 
ITER      Energy       Delta-E        Grad      Rot      Max-DP    RMS-DP
  6   -529.80594436  -0.0001159191  0.000362  0.000362  0.001391  0.000037
               *** Restarting incremental Fock matrix formation ***
  7   -529.80596697  -0.0000226089  0.000173  0.000492  0.001127  0.000027
  8   -529.80596551   0.0000014581  0.000284  0.000432  0.000931  0.000014
  9   -529.80596875  -0.0000032385  0.000048  0.000132  0.000206  0.000007
 10   -529.80596872   0.0000000280  0.000044  0.000071  0.000120  0.000003
 11   -529.80596889  -0.0000001611  0.000020  0.000065  0.000088  0.000001
 12   -529.80596887   0.0000000114  0.000039  0.000046  0.000061  0.000001
                  ***Gradient check signals convergence***
              ***Rediagonalizing the Fockian in SOSCF/NRSCF***

               *****************************************************
               *                     SUCCESS                       *
               *           SCF CONVERGED AFTER  13 CYCLES          *
               *****************************************************

Setting up the final grid:

General Integration Accuracy     IntAcc      ...  4.670
Radial Grid Type                 RadialGrid  ... Gauss-Chebyshev
Angular Grid (max. acc.)         AngularGrid ... Lebedev-302
Angular grid pruning method      GridPruning ... 3 (G Style)
Weight generation scheme         WeightScheme... Becke
Basis function cutoff            BFCut       ...    1.0000e-11
Integration weight cutoff        WCut        ...    1.0000e-14
Grids for H and He will be reduced by one unit

# of grid points (after initial pruning)     ... 109060 (   0.0 sec)
# of grid points (after weights+screening)   ...  99376 (   0.2 sec)
nearest neighbour list constructed           ...    0.0 sec
Grid point re-assignment to atoms done       ...    0.0 sec
Grid point division into batches done        ...    0.4 sec
Reduced shell lists constructed in    0.5 sec

Total number of grid points                  ...    99376
Total number of batches                      ...     1563
Average number of points per batch           ...       63
Average number of grid points per atom       ...     4321
Average number of shells per batch           ...    57.53 (56.40%)
Average number of basis functions per batch  ...   115.74 (54.09%)
Average number of large shells per batch     ...    39.83 (69.23%)
Average number of large basis fcns per batch ...    81.62 (70.52%)
Maximum spatial batch extension              ...   7.78, 11.48, 20.37 au
Average spatial batch extension              ...   0.24,  0.26,  0.32 au

Final grid set up in    0.8 sec
Final integration                            ... done (   0.4 sec)
Change in XC energy                          ...     0.000473419
Integrated number of electrons               ...    83.999998951
Previous integrated no of electrons          ...    84.007121480
Old exchange energy                            =    -14.000455540 Eh
New exchange energy                            =    -14.000066557 Eh
Exchange energy change after final integration =      0.000388983 Eh
Total energy after final integration           =   -529.805106493 Eh
Final COS-X integration done in                =     3.374 sec

----------------
TOTAL SCF ENERGY
----------------

Total Energy       :         -529.80510649 Eh          -14416.72988 eV

Components:
Nuclear Repulsion  :          577.82682383 Eh           15723.46724 eV
Electronic Energy  :        -1107.63193032 Eh          -30140.19712 eV
One Electron Energy:        -1865.54336543 Eh          -50764.01577 eV
Two Electron Energy:          757.91143511 Eh           20623.81864 eV

Virial components:
Potential Energy   :        -1056.34401262 Eh          -28744.58193 eV
Kinetic Energy     :          526.53890613 Eh           14327.85205 eV
Virial Ratio       :            2.00620315


DFT components:
N(Alpha)           :       41.999999475552 electrons
N(Beta)            :       41.999999475552 electrons
N(Total)           :       83.999998951104 electrons
E(X)               :      -55.645883763593 Eh       
E(C)               :       -3.344586399584 Eh       
E(XC)              :      -58.990470163177 Eh       

---------------
SCF CONVERGENCE
---------------

  Last Energy change         ...   -2.1265e-08  Tolerance :   1.0000e-08
  Last MAX-Density change    ...    5.5594e-14  Tolerance :   1.0000e-07
  Last RMS-Density change    ...    3.8224e-16  Tolerance :   5.0000e-09
  Last Orbital Gradient      ...    2.2322e-06  Tolerance :   1.0000e-05
  Last Orbital Rotation      ...    7.6328e-06  Tolerance :   1.0000e-05

             **** THE GBW FILE WAS UPDATED (AT-v/e/frag_24_c00001.gbw) ****
             **** DENSITY FILE WAS UPDATED (AT-v/e/frag_24_c00001.scfp.tmp) ****
             **** ENERGY FILE WAS UPDATED (AT-v/e/frag_24_c00001.en.tmp) ****
----------------
ORBITAL ENERGIES
----------------

  NO   OCC          E(Eh)            E(eV) 
   0   2.0000     -19.099642      -519.7277 
   1   2.0000     -14.339041      -390.1851 
   2   2.0000     -14.318131      -389.6162 
   3   2.0000     -14.313684      -389.4951 
   4   2.0000     -14.297181      -389.0461 
   5   2.0000     -10.277834      -279.6741 
   6   2.0000     -10.257558      -279.1223 
   7   2.0000     -10.250211      -278.9224 
   8   2.0000     -10.200708      -277.5754 
   9   2.0000     -10.191587      -277.3272 
  10   2.0000     -10.175475      -276.8887 
  11   2.0000      -1.028741       -27.9935 
  12   2.0000      -0.945503       -25.7284 
  13   2.0000      -0.899851       -24.4862 
  14   2.0000      -0.881626       -23.9903 
  15   2.0000      -0.841106       -22.8877 
  16   2.0000      -0.797469       -21.7002 
  17   2.0000      -0.684906       -18.6372 
  18   2.0000      -0.657264       -17.8851 
  19   2.0000      -0.624686       -16.9986 
  20   2.0000      -0.568329       -15.4650 
  21   2.0000      -0.545974       -14.8567 
  22   2.0000      -0.526498       -14.3267 
  23   2.0000      -0.510198       -13.8832 
  24   2.0000      -0.491283       -13.3685 
  25   2.0000      -0.474291       -12.9061 
  26   2.0000      -0.445937       -12.1346 
  27   2.0000      -0.435778       -11.8581 
  28   2.0000      -0.425989       -11.5918 
  29   2.0000      -0.422798       -11.5049 
  30   2.0000      -0.399672       -10.8756 
  31   2.0000      -0.390474       -10.6253 
  32   2.0000      -0.381672       -10.3858 
  33   2.0000      -0.366693        -9.9782 
  34   2.0000      -0.360578        -9.8118 
  35   2.0000      -0.316066        -8.6006 
  36   2.0000      -0.293935        -7.9984 
  37   2.0000      -0.271344        -7.3836 
  38   2.0000      -0.266061        -7.2399 
  39   2.0000      -0.249525        -6.7899 
  40   2.0000      -0.246785        -6.7154 
  41   2.0000      -0.230227        -6.2648 
  42   0.0000      -0.049746        -1.3537 
  43   0.0000      -0.030475        -0.8293 
  44   0.0000       0.053106         1.4451 
  45   0.0000       0.061780         1.6811 
  46   0.0000       0.085878         2.3369 
  47   0.0000       0.086808         2.3622 
  48   0.0000       0.093963         2.5569 
  49   0.0000       0.099307         2.7023 
  50   0.0000       0.110462         3.0058 
  51   0.0000       0.115160         3.1337 
  52   0.0000       0.147023         4.0007 
  53   0.0000       0.152762         4.1569 
  54   0.0000       0.163613         4.4521 
  55   0.0000       0.166448         4.5293 
  56   0.0000       0.218987         5.9589 
  57   0.0000       0.235490         6.4080 
  58   0.0000       0.249163         6.7801 
  59   0.0000       0.256970         6.9925 
  60   0.0000       0.295675         8.0457 
  61   0.0000       0.316881         8.6228 
  62   0.0000       0.329847         8.9756 
  63   0.0000       0.346912         9.4400 
  64   0.0000       0.369217        10.0469 
  65   0.0000       0.390225        10.6186 
  66   0.0000       0.406671        11.0661 
  67   0.0000       0.437851        11.9145 
  68   0.0000       0.454102        12.3567 
  69   0.0000       0.475373        12.9355 
  70   0.0000       0.479724        13.0540 
  71   0.0000       0.487518        13.2660 
  72   0.0000       0.503198        13.6927 
  73   0.0000       0.505605        13.7582 
  74   0.0000       0.509848        13.8737 
  75   0.0000       0.530816        14.4442 
  76   0.0000       0.539866        14.6905 
  77   0.0000       0.548563        14.9272 
  78   0.0000       0.555422        15.1138 
  79   0.0000       0.561413        15.2768 
  80   0.0000       0.567580        15.4446 
  81   0.0000       0.574473        15.6322 
  82   0.0000       0.600051        16.3282 
  83   0.0000       0.628166        17.0933 
  84   0.0000       0.635076        17.2813 
  85   0.0000       0.646983        17.6053 
  86   0.0000       0.653036        17.7700 
  87   0.0000       0.654415        17.8075 
  88   0.0000       0.658720        17.9247 
  89   0.0000       0.675299        18.3758 
  90   0.0000       0.677157        18.4264 
  91   0.0000       0.681371        18.5410 
  92   0.0000       0.718507        19.5516 
  93   0.0000       0.723674        19.6922 
  94   0.0000       0.734526        19.9875 
  95   0.0000       0.749073        20.3833 
  96   0.0000       0.770605        20.9692 
  97   0.0000       0.779448        21.2099 
  98   0.0000       0.804083        21.8802 
  99   0.0000       0.811042        22.0696 
 100   0.0000       0.820173        22.3180 
 101   0.0000       0.835504        22.7352 
 102   0.0000       0.859879        23.3985 
 103   0.0000       0.881978        23.9998 
 104   0.0000       0.890533        24.2326 
 105   0.0000       0.899940        24.4886 
 106   0.0000       0.921493        25.0751 
 107   0.0000       0.944930        25.7128 
 108   0.0000       0.951439        25.8900 
 109   0.0000       0.983899        26.7733 
 110   0.0000       0.993108        27.0238 
 111   0.0000       1.005663        27.3655 
 112   0.0000       1.020826        27.7781 
 113   0.0000       1.032715        28.1016 
 114   0.0000       1.049637        28.5621 
 115   0.0000       1.070845        29.1392 
 116   0.0000       1.078493        29.3473 
 117   0.0000       1.099790        29.9268 
 118   0.0000       1.116840        30.3908 
 119   0.0000       1.139742        31.0140 
 120   0.0000       1.177122        32.0311 
 121   0.0000       1.189879        32.3783 
 122   0.0000       1.208884        32.8954 
 123   0.0000       1.254687        34.1418 
 124   0.0000       1.270015        34.5589 
 125   0.0000       1.282328        34.8939 
 126   0.0000       1.291479        35.1429 
 127   0.0000       1.313931        35.7539 
 128   0.0000       1.330832        36.2138 
 129   0.0000       1.338958        36.4349 
 130   0.0000       1.365240        37.1501 
 131   0.0000       1.370295        37.2876 
 132   0.0000       1.414970        38.5033 
 133   0.0000       1.433553        39.0090 
 134   0.0000       1.458249        39.6810 
 135   0.0000       1.472749        40.0755 
 136   0.0000       1.492275        40.6069 
 137   0.0000       1.505637        40.9705 
 138   0.0000       1.514276        41.2055 
 139   0.0000       1.521477        41.4015 
 140   0.0000       1.531362        41.6705 
 141   0.0000       1.544457        42.0268 
 142   0.0000       1.560310        42.4582 
 143   0.0000       1.569353        42.7043 
 144   0.0000       1.597684        43.4752 
 145   0.0000       1.604621        43.6639 
 146   0.0000       1.629637        44.3447 
 147   0.0000       1.645428        44.7744 
 148   0.0000       1.657902        45.1138 
 149   0.0000       1.667178        45.3662 
 150   0.0000       1.682779        45.7908 
 151   0.0000       1.703232        46.3473 
 152   0.0000       1.719722        46.7960 
 153   0.0000       1.728494        47.0347 
 154   0.0000       1.731618        47.1197 
 155   0.0000       1.749086        47.5950 
 156   0.0000       1.780323        48.4450 
 157   0.0000       1.787575        48.6424 
 158   0.0000       1.796344        48.8810 
 159   0.0000       1.828973        49.7689 
 160   0.0000       1.842726        50.1431 
 161   0.0000       1.881448        51.1968 
 162   0.0000       1.893318        51.5198 
 163   0.0000       1.903891        51.8075 
 164   0.0000       1.914156        52.0868 
 165   0.0000       1.929149        52.4948 
 166   0.0000       1.972647        53.6784 
 167   0.0000       1.998513        54.3823 
 168   0.0000       2.017047        54.8867 
 169   0.0000       2.050421        55.7948 
 170   0.0000       2.065459        56.2040 
 171   0.0000       2.070655        56.3454 
 172   0.0000       2.093062        56.9551 
 173   0.0000       2.113779        57.5189 
 174   0.0000       2.144647        58.3588 
 175   0.0000       2.165641        58.9301 
 176   0.0000       2.201051        59.8936 
 177   0.0000       2.214983        60.2727 
 178   0.0000       2.217100        60.3304 
 179   0.0000       2.252190        61.2852 
 180   0.0000       2.270400        61.7807 
 181   0.0000       2.293244        62.4024 
 182   0.0000       2.303194        62.6731 
 183   0.0000       2.305166        62.7268 
 184   0.0000       2.330701        63.4216 
 185   0.0000       2.365918        64.3799 
 186   0.0000       2.387197        64.9589 
 187   0.0000       2.395936        65.1967 
 188   0.0000       2.424283        65.9681 
 189   0.0000       2.441380        66.4333 
 190   0.0000       2.488512        67.7159 
 191   0.0000       2.508229        68.2524 
 192   0.0000       2.516764        68.4846 
 193   0.0000       2.566438        69.8363 
 194   0.0000       2.577865        70.1473 
 195   0.0000       2.608828        70.9898 
 196   0.0000       2.616410        71.1961 
 197   0.0000       2.648996        72.0828 
 198   0.0000       2.658473        72.3407 
 199   0.0000       2.725569        74.1665 
 200   0.0000       2.753005        74.9131 
 201   0.0000       2.759050        75.0776 
 202   0.0000       2.783000        75.7293 
 203   0.0000       2.819671        76.7272 
 204   0.0000       2.890407        78.6520 
 205   0.0000       2.919163        79.4345 
 206   0.0000       2.968685        80.7820 
 207   0.0000       3.027579        82.3846 
 208   0.0000       3.105704        84.5105 
 209   0.0000       3.179567        86.5204 
 210   0.0000       3.272374        89.0458 
 211   0.0000       3.346448        91.0615 
 212   0.0000       3.482145        94.7540 
 213   0.0000       3.555715        96.7559 
-------
TIMINGS
-------

Total SCF time: 0 days 0 hours 0 min 31 sec 

Total time                  ....      31.032 sec
Sum of individual times     ....      30.891 sec  ( 99.5%)

Fock matrix formation       ....      28.936 sec  ( 93.2%)
  Split-RI-J                ....       4.332 sec  ( 15.0% of F)
  Chain of spheres X        ....      22.565 sec  ( 78.0% of F)
  COS-X 1 center corr.      ....       0.000 sec  (  0.0% of F)
  XC integration            ....       1.950 sec  (  6.7% of F)
    Basis function eval.    ....       0.654 sec  ( 33.5% of XC)
    Density eval.           ....       0.294 sec  ( 15.1% of XC)
    XC-Functional eval.     ....       0.073 sec  (  3.7% of XC)
    XC-Potential eval.      ....       0.603 sec  ( 30.9% of XC)
Diagonalization             ....       0.093 sec  (  0.3%)
Density matrix formation    ....       0.021 sec  (  0.1%)
Population analysis         ....       0.000 sec  (  0.0%)
Initial guess               ....       0.321 sec  (  1.0%)
Orbital Transformation      ....       0.000 sec  (  0.0%)
Orbital Orthonormalization  ....       0.000 sec  (  0.0%)
DIIS solution               ....       0.031 sec  (  0.1%)
SOSCF solution              ....       0.142 sec  (  0.5%)
Grid generation             ....       1.347 sec  (  4.3%)


-------------------------------------------------------------------------------
                          DFT DISPERSION CORRECTION                            
                                                                               
                              DFTD3 V3.1  Rev 1                                
                          USING Becke-Johnson damping                          
-------------------------------------------------------------------------------
The B3LYP functional is recognized
Active option DFTDOPT                   ...         4   

molecular C6(AA) [au] = 5005.301167 


            DFT-D V3
 parameters
 s6 scaling factor         :     1.0000 
 a1 scaling factor         :     0.3981 
 s8 scaling factor         :     1.9889 
 a2 scaling factor         :     4.4211 
 ad hoc parameters k1-k3   :    16.0000     1.3333    -4.0000 

 Edisp/kcal,au: -21.569318925192  -0.034372893982 
 E6   /kcal   : -10.543556100 
 E8   /kcal   : -11.025762825 
 % E8         :  51.117807026 

-------------------------   ----------------
Dispersion correction           -0.034372894
-------------------------   ----------------


-------------------------   --------------------
FINAL SINGLE POINT ENERGY      -529.839479387408
-------------------------   --------------------



           ************************************************************
           *        Program running with 6 parallel MPI-processes     *
           *              working on a common directory               *
           ************************************************************
------------------------------------------------------------------------------
                         ORCA SCF GRADIENT CALCULATION
------------------------------------------------------------------------------

Gradient of the Kohn-Sham DFT energy:
Kohn-Sham wavefunction type      ... RKS
Hartree-Fock exchange scaling    ...    0.200
Number of operators              ...    1
Number of atoms                  ...   23
Basis set dimensions             ...  214
Integral neglect threshold       ... 2.5e-11
Integral primitive cutoff        ... 2.5e-12

Nuclear repulsion gradient       ... done
One Electron Gradient            ... done
Pre-screening matrix             ... done
RI-J gradient                    ... done
COSX-gradient                    ... done
Exchange-correlation gradient    ... done
Dispersion correction            ... done

------------------
CARTESIAN GRADIENT
------------------

   1   N   :    0.013848466   -0.019829428   -0.000258017
   2   C   :    0.000261484    0.029934946    0.003659784
   3   C   :   -0.008262180   -0.002512382   -0.003907869
   4   N   :   -0.014244891   -0.000529114   -0.001340532
   5   N   :   -0.001244653   -0.003433563   -0.001058323
   6   N   :    0.003462087    0.004196394   -0.002636374
   7   C   :   -0.000069369   -0.029641066    0.005586475
   8   O   :    0.000418845    0.017696471   -0.003217551
   9   C   :    0.010643004    0.002090259   -0.001001984
  10   C   :    0.002586809   -0.002460459    0.001691769
  11   C   :   -0.005142040    0.006937667   -0.001655531
  12   H   :   -0.002528282    0.001345662   -0.000617652
  13   H   :    0.002587268   -0.004385875    0.000338512
  14   H   :   -0.004546374    0.000708179    0.003049361
  15   H   :    0.007149486   -0.000448936    0.001474430
  16   H   :    0.001021593    0.001816240    0.001234258
  17   H   :    0.006674570    0.001407402    0.000449109
  18   H   :   -0.009956686   -0.003656328    0.001401384
  19   H   :   -0.004764111    0.004341756   -0.000428775
  20   H   :    0.004812482   -0.002855063    0.000492026
  21   H   :   -0.004329906    0.003650479   -0.000973470
  22   H   :   -0.003716255   -0.004810469    0.000035988
  23   H   :    0.004600550    0.001368233    0.000264623

Difference to translation invariance:
           :   -0.0007381051    0.0009310021    0.0025816415

Norm of the cartesian gradient     ...    0.0611355060
RMS gradient                       ...    0.0073598500
MAX gradient                       ...    0.0299349462

-------
TIMINGS
-------

Total SCF gradient time            ...        6.712 sec

One electron gradient       ....       0.105 sec  (  1.6%)
Prescreening matrices       ....       0.146 sec  (  2.2%)
RI-J Coulomb gradient       ....       0.828 sec  ( 12.3%)
COSX gradient               ....       3.351 sec  ( 49.9%)
XC gradient                 ....       1.692 sec  ( 25.2%)
------------------------------------------------------------------------------
                         ORCA GEOMETRY RELAXATION STEP
------------------------------------------------------------------------------

Reading the OPT-File                    .... done
Getting information on internals        .... done
Copying old internal coords+grads       .... done
Making the new internal coordinates     .... (new redundants).... done
Validating the new internal coordinates .... (new redundants).... done
Calculating the B-matrix                .... done
Calculating the G,G- and P matrices     .... done
Transforming gradient to internals      .... done
Projecting the internal gradient        .... done
Number of atoms                         ....  23
Number of internal coordinates          ....  99
Current Energy                          ....  -529.839479387 Eh
Current gradient norm                   ....     0.061135506 Eh/bohr
Maximum allowed component of the step   ....  0.300
Current trust radius                    ....  0.300
Evaluating the initial hessian          ....  (Almloef) done
Projecting the Hessian                  .... done
Forming the augmented Hessian           .... done
Diagonalizing the augmented Hessian     .... done
Last element of RFO vector              ....  0.970928298
Lowest eigenvalues of augmented Hessian:
 -0.006060357  0.009059263  0.010679438  0.012142788  0.012527653
Length of the computed step             ....  0.246537781
The final length of the internal step   ....  0.246537781
Converting the step to cartesian space:
 Initial RMS(Int)=    0.0247779793
Transforming coordinates:
 Iter   0:  RMS(Cart)=    0.0628374710 RMS(Int)=    1.0905789298
 Iter   1:  RMS(Cart)=    0.0016814669 RMS(Int)=    0.0008576664
 Iter   2:  RMS(Cart)=    0.0002441096 RMS(Int)=    0.0001025436
 Iter   3:  RMS(Cart)=    0.0001331931 RMS(Int)=    0.0000477646
 Iter   4:  RMS(Cart)=    0.0000676714 RMS(Int)=    0.0000241637
 Iter   5:  RMS(Cart)=    0.0000342181 RMS(Int)=    0.0000122673
 Iter   6:  RMS(Cart)=    0.0000173703 RMS(Int)=    0.0000062279
 Iter   7:  RMS(Cart)=    0.0000088198 RMS(Int)=    0.0000031619
 Iter   8:  RMS(Cart)=    0.0000044778 RMS(Int)=    0.0000016053
 Iter   9:  RMS(Cart)=    0.0000022734 RMS(Int)=    0.0000008150
 Iter  10:  RMS(Cart)=    0.0000011542 RMS(Int)=    0.0000004138
 Iter  11:  RMS(Cart)=    0.0000005860 RMS(Int)=    0.0000002101
 Iter  12:  RMS(Cart)=    0.0000002975 RMS(Int)=    0.0000001066
 Iter  13:  RMS(Cart)=    0.0000001510 RMS(Int)=    0.0000000541
 Iter  14:  RMS(Cart)=    0.0000000767 RMS(Int)=    0.0000000275
done
Storing new coordinates                 .... done

                                .--------------------.
          ----------------------|Geometry convergence|-------------------------
          Item                value                   Tolerance       Converged
          ---------------------------------------------------------------------
          RMS gradient        0.0047686151            0.0020000000      NO
          MAX gradient        0.0216119435            0.0030000000      NO
          RMS step            0.0247779793            0.0200000000      NO
          MAX step            0.1022337061            0.0300000000      NO
          ........................................................
          Max(Bonds)      0.0541      Max(Angles)    1.71
          Max(Dihed)        5.57      Max(Improp)    0.00
          ---------------------------------------------------------------------

The optimization has not yet converged - more geometry cycles are needed


    ---------------------------------------------------------------------------
                         Redundant Internal Coordinates
                            (Angstroem and degrees)

        Definition                    Value    dE/dq     Step     New-Value
    ----------------------------------------------------------------------------
     1. B(C   1,N   0)                1.2906  0.021612 -0.0141    1.2765   
     2. B(C   2,C   1)                1.5188  0.014196 -0.0190    1.4998   
     3. B(N   3,C   2)                1.3594  0.004925 -0.0044    1.3550   
     4. B(N   4,C   2)                1.2954 -0.004681  0.0028    1.2983   
     5. B(C   6,N   5)                1.3562  0.002620 -0.0018    1.3544   
     6. B(O   7,C   6)                1.2289 -0.016560  0.0088    1.2377   
     7. B(C   8,C   6)                1.4973 -0.005144  0.0064    1.5037   
     8. B(C   9,C   8)                1.5040 -0.001528  0.0019    1.5059   
     9. B(C  10,C   8)                1.3451  0.005216 -0.0037    1.3414   
    10. B(H  11,N   0)                1.0261 -0.002299  0.0029    1.0290   
    11. B(H  12,C   1)                1.1008 -0.002620  0.0039    1.1048   
    12. B(H  13,N   3)                1.0137 -0.001939  0.0024    1.0161   
    13. B(H  14,N   3)                1.0238 -0.009600  0.0122    1.0360   
    14. B(H  14,O   7)                1.7729 -0.002952  0.0493    1.8222   
    15. B(H  15,N   4)                1.0260  0.002112 -0.0027    1.0233   
    16. B(H  16,N   5)                1.0076 -0.002107  0.0025    1.0101   
    17. B(H  17,N   4)                1.8461 -0.002696  0.0541    1.9002   
    18. B(H  17,N   5)                1.0245 -0.012891  0.0163    1.0408   
    19. B(H  18,C   9)                1.0960 -0.003600  0.0053    1.1013   
    20. B(H  19,C   9)                1.0939 -0.004871  0.0071    1.1010   
    21. B(H  20,C   9)                1.0960 -0.003553  0.0052    1.1012   
    22. B(H  21,C  10)                1.0839 -0.005851  0.0083    1.0922   
    23. B(H  22,C  10)                1.0865 -0.004736  0.0068    1.0932   
    24. A(C   1,N   0,H  11)          109.53 -0.003376    0.51    110.04   
    25. A(N   0,C   1,C   2)          120.15  0.000993   -0.12    120.04   
    26. A(N   0,C   1,H  12)          123.38 -0.005037    0.80    124.19   
    27. A(C   2,C   1,H  12)          116.46  0.004039   -0.68    115.79   
    28. A(C   1,C   2,N   4)          120.06 -0.006292    0.91    120.96   
    29. A(N   3,C   2,N   4)          121.78 -0.006133    0.81    122.58   
    30. A(C   1,C   2,N   3)          118.17  0.012425   -1.71    116.46   
    31. A(C   2,N   3,H  14)          116.53  0.001054    0.04    116.58   
    32. A(H  13,N   3,H  14)          114.13 -0.003720    1.22    115.35   
    33. A(C   2,N   3,H  13)          114.98  0.001348   -0.03    114.95   
    34. A(C   2,N   4,H  17)          116.49 -0.001103    0.25    116.74   
    35. A(H  15,N   4,H  17)          131.07  0.000117    0.08    131.15   
    36. A(C   2,N   4,H  15)          110.58  0.000663   -0.08    110.50   
    37. A(H  16,N   5,H  17)          115.63 -0.005352    0.96    116.59   
    38. A(C   6,N   5,H  17)          117.16 -0.000942    0.39    117.55   
    39. A(C   6,N   5,H  16)          124.64  0.006076   -1.17    123.48   
    40. A(O   7,C   6,C   8)          121.44  0.012113   -1.71    119.73   
    41. A(N   5,C   6,C   8)          117.90 -0.008072    0.97    118.86   
    42. A(N   5,C   6,O   7)          120.66 -0.004041    0.74    121.40   
    43. A(C   6,O   7,H  14)          120.84  0.001279    0.10    120.93   
    44. A(C   9,C   8,C  10)          121.76 -0.003455    0.47    122.23   
    45. A(C   6,C   8,C  10)          124.22  0.002351   -0.31    123.90   
    46. A(C   6,C   8,C   9)          114.03  0.001105   -0.16    113.87   
    47. A(H  19,C   9,H  20)          107.63 -0.002659    0.70    108.33   
    48. A(H  18,C   9,H  20)          108.95  0.004053   -1.34    107.62   
    49. A(C   8,C   9,H  20)          110.58 -0.000276   -0.12    110.47   
    50. A(H  18,C   9,H  19)          107.15 -0.002816    0.89    108.03   
    51. A(C   8,C   9,H  19)          112.10  0.003268   -0.32    111.79   
    52. A(C   8,C   9,H  18)          110.29 -0.001576    0.18    110.47   
    53. A(H  21,C  10,H  22)          115.41 -0.001797    0.32    115.73   
    54. A(C   8,C  10,H  22)          120.60 -0.000144    0.00    120.60   
    55. A(C   8,C  10,H  21)          123.99  0.001940   -0.32    123.67   
    56. L(N   3,H  14,O   7,C   2, 2) 173.31 -0.000751    0.21    173.52   
    57. L(N   3,H  14,O   7,C   2, 1) 181.26  0.003313   -0.92    180.34   
    58. L(N   4,H  17,N   5,C   6, 2) 187.21  0.001096   -0.27    186.94   
    59. L(N   4,H  17,N   5,C   6, 1) 180.65  0.006547   -1.60    179.05   
    60. D(H  12,C   1,N   0,H  11)     -0.08  0.000146   -0.89     -0.97   
    61. D(C   2,C   1,N   0,H  11)    179.72 -0.001619    2.39    182.11   
    62. D(N   4,C   2,C   1,N   0)    179.94  0.001229   -4.51    175.43   
    63. D(N   3,C   2,C   1,H  12)    179.74  0.000793   -2.51    177.23   
    64. D(N   3,C   2,C   1,N   0)     -0.07  0.002457   -5.57     -5.65   
    65. D(N   4,C   2,C   1,H  12)     -0.25 -0.000435   -1.44     -1.70   
    66. D(H  13,N   3,C   2,C   1)     19.99  0.002338   -1.88     18.11   
    67. D(H  14,N   3,C   2,C   1)    157.44 -0.000873    0.16    157.60   
    68. D(H  13,N   3,C   2,N   4)   -160.02  0.003588   -2.96   -162.98   
    69. D(H  14,N   3,C   2,N   4)    -22.57  0.000377   -0.92    -23.49   
    70. D(H  17,N   4,C   2,N   3)     14.19 -0.000898    0.56     14.75   
    71. D(H  15,N   4,C   2,N   3)   -179.58 -0.002031    1.48   -178.11   
    72. D(H  15,N   4,C   2,C   1)      0.41 -0.000756    0.37      0.78   
    73. D(H  17,N   4,C   2,C   1)   -165.82  0.000377   -0.55   -166.36   
    74. D(C   6,N   5,N   4,C   2)     -3.85 -0.000854    0.80     -3.06   
    75. D(H  16,N   5,N   4,H  15)     31.07 -0.000886   -0.38     30.69   
    76. D(H  16,N   5,N   4,C   2)   -164.05 -0.002073    0.66   -163.39   
    77. D(C   6,N   5,N   4,H  15)   -168.73  0.000332   -0.25   -168.98   
    78. D(C   8,C   6,N   5,H  17)   -171.25  0.001363   -1.45   -172.70   
    79. D(C   8,C   6,N   5,H  16)    -10.25 -0.000517   -0.60    -10.84   
    80. D(O   7,C   6,N   5,H  17)      8.75  0.000286   -0.67      8.08   
    81. D(O   7,C   6,N   5,H  16)    169.75 -0.001595    0.18    169.93   
    82. D(H  14,O   7,C   6,C   8)    161.93 -0.000944    0.79    162.72   
    83. D(H  14,O   7,C   6,N   5)    -18.07  0.000172   -0.01    -18.08   
    84. D(C   6,O   7,N   3,H  13)    167.65  0.001070    2.14    169.79   
    85. D(C   6,O   7,N   3,C   2)     27.47  0.001546    0.73     28.20   
    86. D(C  10,C   8,C   6,O   7)   -179.98  0.000603   -0.56   -180.54   
    87. D(C  10,C   8,C   6,N   5)      0.02 -0.000483    0.22      0.24   
    88. D(C   9,C   8,C   6,O   7)      0.02  0.000575   -0.50     -0.49   
    89. D(C   9,C   8,C   6,N   5)   -179.98 -0.000511    0.28   -179.71   
    90. D(H  18,C   9,C   8,C   6)    -60.99 -0.002327    1.56    -59.43   
    91. D(H  20,C   9,C   8,C  10)   -120.41  0.001506   -0.01   -120.43   
    92. D(H  20,C   9,C   8,C   6)     59.59  0.001532   -0.07     59.52   
    93. D(H  19,C   9,C   8,C  10)     -0.30  0.000128    0.58      0.28   
    94. D(H  19,C   9,C   8,C   6)    179.71  0.000155    0.53    180.23   
    95. D(H  18,C   9,C   8,C  10)    119.00 -0.002354    1.62    120.62   
    96. D(H  22,C  10,C   8,C   9)     -0.15  0.000192   -0.26     -0.41   
    97. D(H  22,C  10,C   8,C   6)    179.84  0.000163   -0.20    179.64   
    98. D(H  21,C  10,C   8,C   9)    179.56  0.000087   -0.12    179.43   
    99. D(H  21,C  10,C   8,C   6)     -0.45  0.000058   -0.06     -0.51   
    ----------------------------------------------------------------------------

         *************************************************************
         *                GEOMETRY OPTIMIZATION CYCLE   2            *
         *************************************************************
---------------------------------
CARTESIAN COORDINATES (ANGSTROEM)
---------------------------------
  N      3.726661   -1.796615   -0.042917
  C      3.157813   -0.658336   -0.143523
  C      1.663774   -0.572556   -0.243525
  N      0.996745   -1.748094   -0.339026
  N      1.060270    0.576819   -0.258017
  N     -1.858212    0.531868    0.088258
  C     -2.448273   -0.683538    0.183158
  O     -1.780232   -1.715054    0.330422
  C     -3.948398   -0.768636    0.124749
  C     -4.484376   -2.170581    0.247611
  C     -4.752994    0.294615   -0.021792
  H      4.744166   -1.675261    0.051022
  H      3.693322    0.307521   -0.114296
  H      1.525795   -2.565823   -0.049386
  H      0.000879   -1.740334   -0.053558
  H      1.740638    1.339505   -0.206925
  H     -2.352443    1.371803   -0.177264
  H     -0.820377    0.558698    0.013720
  H     -4.092020   -2.805275   -0.562399
  H     -5.583969   -2.193636    0.196477
  H     -4.172599   -2.619605    1.203556
  H     -4.390418    1.321548   -0.104067
  H     -5.838252    0.169666   -0.063378

----------------------------
CARTESIAN COORDINATES (A.U.)
----------------------------
  NO LB      ZA    FRAG     MASS         X           Y           Z
   0 N     7.0000    0    14.007    7.042369   -3.395110   -0.081101
   1 C     6.0000    0    12.011    5.967402   -1.244075   -0.271219
   2 C     6.0000    0    12.011    3.144078   -1.081973   -0.460195
   3 N     7.0000    0    14.007    1.883576   -3.303420   -0.640666
   4 N     7.0000    0    14.007    2.003620    1.090029   -0.487582
   5 N     7.0000    0    14.007   -3.511513    1.005085    0.166784
   6 C     6.0000    0    12.011   -4.626565   -1.291699    0.346119
   7 O     8.0000    0    15.999   -3.364151   -3.240981    0.624407
   8 C     6.0000    0    12.011   -7.461390   -1.452511    0.235741
   9 C     6.0000    0    12.011   -8.474243   -4.101803    0.467917
  10 C     6.0000    0    12.011   -8.981858    0.556741   -0.041181
  11 H     1.0000    0     1.008    8.965175   -3.165784    0.096417
  12 H     1.0000    0     1.008    6.979367    0.581130   -0.215989
  13 H     1.0000    0     1.008    2.883334   -4.848702   -0.093327
  14 H     1.0000    0     1.008    0.001660   -3.288754   -0.101211
  15 H     1.0000    0     1.008    3.289330    2.531298   -0.391032
  16 H     1.0000    0     1.008   -4.445472    2.592333   -0.334980
  17 H     1.0000    0     1.008   -1.550288    1.055787    0.025927
  18 H     1.0000    0     1.008   -7.732798   -5.301202   -1.062781
  19 H     1.0000    0     1.008  -10.552173   -4.145372    0.371288
  20 H     1.0000    0     1.008   -7.885070   -4.950337    2.274392
  21 H     1.0000    0     1.008   -8.296687    2.497363   -0.196658
  22 H     1.0000    0     1.008  -11.032698    0.320622   -0.119768

--------------------------------
INTERNAL COORDINATES (ANGSTROEM)
--------------------------------
 N      0   0   0     0.000000000000     0.00000000     0.00000000
 C      1   0   0     1.276475101467     0.00000000     0.00000000
 C      2   1   0     1.499837021217   120.01146097     0.00000000
 N      3   2   1     1.354968555652   116.45281085   354.36691898
 N      3   2   1     1.298263641889   120.95978799   175.43397054
 N      5   3   2     2.939297054989   116.53272879   191.96417308
 C      6   5   3     1.354396345014   117.03638132   356.95269568
 O      7   6   5     1.237735828470   121.40354024    11.11001778
 C      7   6   5     1.503671396139   118.86185194   190.32288717
 C      9   7   6     1.505927890036   113.86540686   180.28731822
 C      9   7   6     1.341398949830   123.90306555     0.23643813
 H      1   2   3     1.029012831761   110.04061899   182.12652830
 H      2   1   3     1.104763923436   124.16066892   176.89167347
 H      4   3   2     1.016102432211   114.94784277    18.10350940
 H      4   3   2     1.036003233589   116.57004207   157.60384087
 H      5   3   2     1.023329232330   110.49992564     0.77968147
 H      6   5   3     1.010077610430   116.24104738   196.59121009
 H      6   5   3     1.040854701867     2.72496805    98.54140228
 H     10   9   7     1.101316322469   110.46948567   300.56891677
 H     10   9   7     1.101022418105   111.78690113   180.23379198
 H     10   9   7     1.101207930700   110.46639906    59.52154156
 H     11   9   7     1.092163881980   123.66959631   359.48843214
 H     11   9   7     1.093218453866   120.59804903   179.64208056

---------------------------
INTERNAL COORDINATES (A.U.)
---------------------------
 N      0   0   0     0.000000000000     0.00000000     0.00000000
 C      1   0   0     2.412188358541     0.00000000     0.00000000
 C      2   1   0     2.834281215617   120.01146097     0.00000000
 N      3   2   1     2.560519490257   116.45281085   354.36691898
 N      3   2   1     2.453362732798   120.95978799   175.43397054
 N      5   3   2     5.554466460171   116.53272879   191.96417308
 C      6   5   3     2.559438168860   117.03638132   356.95269568
 O      7   6   5     2.338981741951   121.40354024    11.11001778
 C      7   6   5     2.841527134113   118.86185194   190.32288717
 C      9   7   6     2.845791289601   113.86540686   180.28731822
 C      9   7   6     2.534876651509   123.90306555     0.23643813
 H      1   2   3     1.944552440319   110.04061899   182.12652830
 H      2   1   3     2.087701257930   124.16066892   176.89167347
 H      4   3   2     1.920155320889   114.94784277    18.10350940
 H      4   3   2     1.957762385340   116.57004207   157.60384087
 H      5   3   2     1.933811993939   110.49992564     0.77968147
 H      6   5   3     1.908770057719   116.24104738   196.59121009
 H      6   5   3     1.966930331732     2.72496805    98.54140228
 H     10   9   7     2.081186236283   110.46948567   300.56891677
 H     10   9   7     2.080630837527   111.78690113   180.23379198
 H     10   9   7     2.080981405526   110.46639906    59.52154156
 H     11   9   7     2.063890630302   123.66959631   359.48843214
 H     11   9   7     2.065883482356   120.59804903   179.64208056



           ************************************************************
           *        Program running with 6 parallel MPI-processes     *
           *              working on a common directory               *
           ************************************************************
 One Electron integrals                  ... done
 Pre-screening matrix                    ... done


           ************************************************************
           *        Program running with 6 parallel MPI-processes     *
           *              working on a common directory               *
[...]
Inverting numerical overlap    ... done (      0.0 sec)
Obtaining analytic overlap     ... done (      0.0 sec)
Final contraction and storage  ... done (      0.0 sec)

Time for X-Grid setup             =    0.431 sec
--------------
SCF ITERATIONS
--------------
ITER       Energy         Delta-E        Max-DP      RMS-DP      [F,P]     Damp
               ***  Starting incremental Fock matrix formation  ***
                      *** Initiating the SOSCF procedure ***
                      *** Re-Reading the Fockian *** 
                      *** Removing any level shift *** 
ITER      Energy       Delta-E        Grad      Rot      Max-DP    RMS-DP
  0   -529.80971826 -529.8097182581  0.001575  0.001575  0.005070  0.000158
               *** Restarting incremental Fock matrix formation ***
  1   -529.81015856  -0.0004403013  0.000754  0.002228  0.002121  0.000073
  2   -529.81020511  -0.0000465507  0.000434  0.001797  0.002792  0.000051
  3   -529.81019376   0.0000113505  0.000754  0.001139  0.001798  0.000034
  4   -529.81021137  -0.0000176067  0.000078  0.000216  0.000407  0.000007
  5   -529.81021107   0.0000003007  0.000142  0.000147  0.000272  0.000004
  6   -529.81021156  -0.0000004902  0.000020  0.000089  0.000104  0.000002
  7   -529.81021154   0.0000000197  0.000040  0.000061  0.000076  0.000001
                  ***Gradient check signals convergence***
              ***Rediagonalizing the Fockian in SOSCF/NRSCF***

               *****************************************************
               *                     SUCCESS                       *
               *           SCF CONVERGED AFTER   8 CYCLES          *
               *****************************************************

Setting up the final grid:

General Integration Accuracy     IntAcc      ...  4.670
Radial Grid Type                 RadialGrid  ... Gauss-Chebyshev
Angular Grid (max. acc.)         AngularGrid ... Lebedev-302
Angular grid pruning method      GridPruning ... 3 (G Style)
Weight generation scheme         WeightScheme... Becke
Basis function cutoff            BFCut       ...    1.0000e-11
Integration weight cutoff        WCut        ...    1.0000e-14
Grids for H and He will be reduced by one unit

# of grid points (after initial pruning)     ... 109060 (   0.0 sec)
# of grid points (after weights+screening)   ...  99316 (   0.1 sec)
nearest neighbour list constructed           ...    0.0 sec
Grid point re-assignment to atoms done       ...    0.0 sec
Grid point division into batches done        ...    0.4 sec
Reduced shell lists constructed in    0.6 sec

Total number of grid points                  ...    99316
Total number of batches                      ...     1563
Average number of points per batch           ...       63
Average number of grid points per atom       ...     4318
Average number of shells per batch           ...    57.62 (56.49%)
Average number of basis functions per batch  ...   115.77 (54.10%)
Average number of large shells per batch     ...    39.97 (69.37%)
Average number of large basis fcns per batch ...    81.96 (70.79%)
Maximum spatial batch extension              ...   8.21, 12.02, 19.45 au
Average spatial batch extension              ...   0.23,  0.25,  0.31 au

Final grid set up in    0.9 sec
Final integration                            ... done (   0.4 sec)
Change in XC energy                          ...    -0.000157148
Integrated number of electrons               ...    83.999930546
Previous integrated no of electrons          ...    84.003688781
Old exchange energy                            =    -13.997242400 Eh
New exchange energy                            =    -13.996953530 Eh
Exchange energy change after final integration =      0.000288870 Eh
Total energy after final integration           =   -529.810079837 Eh
Final COS-X integration done in                =     2.763 sec

----------------
TOTAL SCF ENERGY
----------------

Total Energy       :         -529.81007984 Eh          -14416.86521 eV

Components:
Nuclear Repulsion  :          577.51799313 Eh           15715.06353 eV
Electronic Energy  :        -1107.32807297 Eh          -30131.92874 eV
One Electron Energy:        -1864.99682337 Eh          -50749.14360 eV
Two Electron Energy:          757.66875040 Eh           20617.21486 eV

Virial components:
Potential Energy   :        -1056.28729199 Eh          -28743.03848 eV
Kinetic Energy     :          526.47721215 Eh           14326.17327 eV
Virial Ratio       :            2.00633051


DFT components:
N(Alpha)           :       41.999965272813 electrons
N(Beta)            :       41.999965272813 electrons
N(Total)           :       83.999930545626 electrons
E(X)               :      -55.635048458058 Eh       
E(C)               :       -3.344604533421 Eh       
E(XC)              :      -58.979652991479 Eh       

---------------
SCF CONVERGENCE
---------------

  Last Energy change         ...   -2.3439e-08  Tolerance :   1.0000e-08
  Last MAX-Density change    ...    2.1591e-13  Tolerance :   1.0000e-07
  Last RMS-Density change    ...    1.1351e-15  Tolerance :   5.0000e-09
  Last Orbital Gradient      ...    1.9585e-06  Tolerance :   1.0000e-05
  Last Orbital Rotation      ...    7.7745e-06  Tolerance :   1.0000e-05

             **** THE GBW FILE WAS UPDATED (AT-v/e/frag_24_c00001.gbw) ****
             **** DENSITY FILE WAS UPDATED (AT-v/e/frag_24_c00001.scfp.tmp) ****
             **** ENERGY FILE WAS UPDATED (AT-v/e/frag_24_c00001.en.tmp) ****
----------------
ORBITAL ENERGIES
----------------

  NO   OCC          E(Eh)            E(eV) 
   0   2.0000     -19.095521      -519.6155 
   1   2.0000     -14.340036      -390.2122 
   2   2.0000     -14.322675      -389.7398 
   3   2.0000     -14.315119      -389.5342 
   4   2.0000     -14.297306      -389.0495 
   5   2.0000     -10.275999      -279.6242 
   6   2.0000     -10.255331      -279.0618 
   7   2.0000     -10.249664      -278.9075 
   8   2.0000     -10.198999      -277.5289 
   9   2.0000     -10.189775      -277.2779 
  10   2.0000     -10.174632      -276.8658 
  11   2.0000      -1.018082       -27.7034 
  12   2.0000      -0.950031       -25.8517 
  13   2.0000      -0.903592       -24.5880 
  14   2.0000      -0.884141       -24.0587 
  15   2.0000      -0.841923       -22.9099 
  16   2.0000      -0.794112       -21.6089 
  17   2.0000      -0.682322       -18.5669 
  18   2.0000      -0.660927       -17.9847 
  19   2.0000      -0.617403       -16.8004 
  20   2.0000      -0.565782       -15.3957 
  21   2.0000      -0.542534       -14.7631 
  22   2.0000      -0.530708       -14.4413 
  23   2.0000      -0.512488       -13.9455 
  24   2.0000      -0.497457       -13.5365 
  25   2.0000      -0.472714       -12.8632 
  26   2.0000      -0.445287       -12.1169 
  27   2.0000      -0.435426       -11.8485 
  28   2.0000      -0.425082       -11.5671 
  29   2.0000      -0.417161       -11.3515 
  30   2.0000      -0.399551       -10.8723 
  31   2.0000      -0.392424       -10.6784 
  32   2.0000      -0.375135       -10.2079 
  33   2.0000      -0.364193        -9.9102 
  34   2.0000      -0.360709        -9.8154 
  35   2.0000      -0.319370        -8.6905 
  36   2.0000      -0.296081        -8.0568 
  37   2.0000      -0.271172        -7.3790 
  38   2.0000      -0.262989        -7.1563 
  39   2.0000      -0.248110        -6.7514 
  40   2.0000      -0.244139        -6.6434 
  41   2.0000      -0.229013        -6.2318 
  42   0.0000      -0.048365        -1.3161 
  43   0.0000      -0.026003        -0.7076 
  44   0.0000       0.053047         1.4435 
  45   0.0000       0.061370         1.6700 
  46   0.0000       0.085200         2.3184 
  47   0.0000       0.091496         2.4897 
  48   0.0000       0.095726         2.6048 
  49   0.0000       0.098638         2.6841 
  50   0.0000       0.112227         3.0538 
  51   0.0000       0.117637         3.2011 
  52   0.0000       0.148991         4.0543 
  53   0.0000       0.155126         4.2212 
  54   0.0000       0.164388         4.4732 
  55   0.0000       0.167461         4.5569 
  56   0.0000       0.218494         5.9455 
  57   0.0000       0.223982         6.0949 
  58   0.0000       0.247036         6.7222 
  59   0.0000       0.261608         7.1187 
  60   0.0000       0.295341         8.0366 
  61   0.0000       0.317866         8.6496 
  62   0.0000       0.332729         9.0540 
  63   0.0000       0.344855         9.3840 
  64   0.0000       0.368146        10.0178 
  65   0.0000       0.390572        10.6280 
  66   0.0000       0.409573        11.1450 
  67   0.0000       0.435385        11.8474 
  68   0.0000       0.459843        12.5130 
  69   0.0000       0.471745        12.8368 
  70   0.0000       0.474880        12.9221 
  71   0.0000       0.476829        12.9752 
  72   0.0000       0.502851        13.6833 
  73   0.0000       0.506049        13.7703 
  74   0.0000       0.509516        13.8646 
  75   0.0000       0.527842        14.3633 
  76   0.0000       0.534661        14.5489 
  77   0.0000       0.549064        14.9408 
  78   0.0000       0.553511        15.0618 
  79   0.0000       0.556297        15.1376 
  80   0.0000       0.568030        15.4569 
  81   0.0000       0.576390        15.6844 
  82   0.0000       0.600697        16.3458 
  83   0.0000       0.629599        17.1323 
  84   0.0000       0.632551        17.2126 
  85   0.0000       0.642727        17.4895 
  86   0.0000       0.649725        17.6799 
  87   0.0000       0.654020        17.7968 
  88   0.0000       0.660215        17.9654 
  89   0.0000       0.673535        18.3278 
  90   0.0000       0.676181        18.3998 
  91   0.0000       0.680901        18.5282 
  92   0.0000       0.719105        19.5678 
  93   0.0000       0.723658        19.6917 
  94   0.0000       0.733350        19.9555 
  95   0.0000       0.742085        20.1931 
  96   0.0000       0.769824        20.9480 
  97   0.0000       0.778190        21.1756 
  98   0.0000       0.800632        21.7863 
  99   0.0000       0.816256        22.2114 
 100   0.0000       0.819204        22.2917 
 101   0.0000       0.842711        22.9313 
 102   0.0000       0.857981        23.3469 
 103   0.0000       0.886558        24.1245 
 104   0.0000       0.892591        24.2886 
 105   0.0000       0.912075        24.8188 
 106   0.0000       0.923507        25.1299 
 107   0.0000       0.934997        25.4426 
 108   0.0000       0.953552        25.9475 
 109   0.0000       0.986159        26.8347 
 110   0.0000       0.994997        27.0753 
 111   0.0000       1.018443        27.7132 
 112   0.0000       1.022704        27.8292 
 113   0.0000       1.041796        28.3487 
 114   0.0000       1.049466        28.5574 
 115   0.0000       1.068368        29.0718 
 116   0.0000       1.089483        29.6463 
 117   0.0000       1.101189        29.9649 
 118   0.0000       1.117650        30.4128 
 119   0.0000       1.139741        31.0139 
 120   0.0000       1.178032        32.0559 
 121   0.0000       1.198090        32.6017 
 122   0.0000       1.207004        32.8443 
 123   0.0000       1.246791        33.9269 
 124   0.0000       1.271858        34.6090 
 125   0.0000       1.275296        34.7026 
 126   0.0000       1.290235        35.1091 
 127   0.0000       1.310995        35.6740 
 128   0.0000       1.322468        35.9862 
 129   0.0000       1.342746        36.5380 
 130   0.0000       1.362709        37.0812 
 131   0.0000       1.374121        37.3917 
 132   0.0000       1.405881        38.2560 
 133   0.0000       1.429485        38.8983 
 134   0.0000       1.455016        39.5930 
 135   0.0000       1.478554        40.2335 
 136   0.0000       1.481093        40.3026 
 137   0.0000       1.505876        40.9770 
 138   0.0000       1.520529        41.3757 
 139   0.0000       1.527573        41.5674 
 140   0.0000       1.529405        41.6172 
 141   0.0000       1.540835        41.9282 
 142   0.0000       1.565365        42.5958 
 143   0.0000       1.579662        42.9848 
 144   0.0000       1.593354        43.3574 
 145   0.0000       1.606451        43.7138 
 146   0.0000       1.615821        43.9687 
 147   0.0000       1.635604        44.5070 
 148   0.0000       1.660056        45.1724 
 149   0.0000       1.672189        45.5026 
 150   0.0000       1.684854        45.8472 
 151   0.0000       1.707123        46.4532 
 152   0.0000       1.714671        46.6586 
 153   0.0000       1.724801        46.9342 
 154   0.0000       1.726652        46.9846 
 155   0.0000       1.742289        47.4101 
 156   0.0000       1.787849        48.6498 
 157   0.0000       1.795621        48.8613 
 158   0.0000       1.800164        48.9850 
 159   0.0000       1.839370        50.0518 
 160   0.0000       1.844581        50.1936 
 161   0.0000       1.870095        50.8879 
 162   0.0000       1.888554        51.3902 
 163   0.0000       1.895771        51.5865 
 164   0.0000       1.912691        52.0470 
 165   0.0000       1.928936        52.4890 
 166   0.0000       1.973357        53.6978 
 167   0.0000       1.994758        54.2801 
 168   0.0000       2.012566        54.7647 
 169   0.0000       2.054473        55.9051 
 170   0.0000       2.075630        56.4808 
 171   0.0000       2.082462        56.6667 
 172   0.0000       2.099224        57.1228 
 173   0.0000       2.125268        57.8315 
 174   0.0000       2.154645        58.6309 
 175   0.0000       2.173531        59.1448 
 176   0.0000       2.199155        59.8421 
 177   0.0000       2.211573        60.1800 
 178   0.0000       2.222696        60.4826 
 179   0.0000       2.226118        60.5757 
 180   0.0000       2.275210        61.9116 
 181   0.0000       2.281922        62.0942 
 182   0.0000       2.294821        62.4453 
 183   0.0000       2.316306        63.0299 
 184   0.0000       2.321872        63.1813 
 185   0.0000       2.352557        64.0163 
 186   0.0000       2.379737        64.7559 
 187   0.0000       2.387634        64.9708 
 188   0.0000       2.423480        65.9463 
 189   0.0000       2.436648        66.3046 
 190   0.0000       2.485883        67.6443 
 191   0.0000       2.494985        67.8920 
 192   0.0000       2.515122        68.4400 
 193   0.0000       2.553966        69.4969 
 194   0.0000       2.561247        69.6951 
 195   0.0000       2.610826        71.0442 
 196   0.0000       2.626077        71.4592 
 197   0.0000       2.632514        71.6344 
 198   0.0000       2.662644        72.4542 
 199   0.0000       2.712433        73.8090 
 200   0.0000       2.757884        75.0458 
 201   0.0000       2.763368        75.1951 
 202   0.0000       2.795583        76.0717 
 203   0.0000       2.816213        76.6330 
 204   0.0000       2.878454        78.3267 
 205   0.0000       2.933356        79.8207 
 206   0.0000       2.977848        81.0314 
 207   0.0000       3.030922        82.4756 
 208   0.0000       3.096015        84.2469 
 209   0.0000       3.185522        86.6825 
 210   0.0000       3.272953        89.0616 
 211   0.0000       3.345794        91.0437 
 212   0.0000       3.466684        94.3333 
 213   0.0000       3.540347        96.3377 
-------
TIMINGS
-------

Total SCF time: 0 days 0 hours 0 min 20 sec 

Total time                  ....      20.437 sec
Sum of individual times     ....      20.345 sec  ( 99.5%)

Fock matrix formation       ....      18.701 sec  ( 91.5%)
  Split-RI-J                ....       2.706 sec  ( 14.5% of F)
  Chain of spheres X        ....      14.695 sec  ( 78.6% of F)
  COS-X 1 center corr.      ....       0.000 sec  (  0.0% of F)
  XC integration            ....       1.253 sec  (  6.7% of F)
    Basis function eval.    ....       0.433 sec  ( 34.6% of XC)
    Density eval.           ....       0.200 sec  ( 15.9% of XC)
    XC-Functional eval.     ....       0.049 sec  (  3.9% of XC)
    XC-Potential eval.      ....       0.389 sec  ( 31.1% of XC)
Diagonalization             ....       0.012 sec  (  0.1%)
Density matrix formation    ....       0.013 sec  (  0.1%)
Population analysis         ....       0.000 sec  (  0.0%)
Initial guess               ....       0.012 sec  (  0.1%)
Orbital Transformation      ....       0.000 sec  (  0.0%)
Orbital Orthonormalization  ....       0.007 sec  (  0.0%)
DIIS solution               ....       0.003 sec  (  0.0%)
SOSCF solution              ....       0.139 sec  (  0.7%)
Grid generation             ....       1.465 sec  (  7.2%)


-------------------------------------------------------------------------------
                          DFT DISPERSION CORRECTION                            
                                                                               
                              DFTD3 V3.1  Rev 1                                
                          USING Becke-Johnson damping                          
-------------------------------------------------------------------------------
The B3LYP functional is recognized
Active option DFTDOPT                   ...         4   

molecular C6(AA) [au] = 5005.252742 


            DFT-D V3
 parameters
 s6 scaling factor         :     1.0000 
 a1 scaling factor         :     0.3981 
 s8 scaling factor         :     1.9889 
 a2 scaling factor         :     4.4211 
 ad hoc parameters k1-k3   :    16.0000     1.3333    -4.0000 

 Edisp/kcal,au: -21.512549859596  -0.034282426727 
 E6   /kcal   : -10.517355113 
 E8   /kcal   : -10.995194746 
 % E8         :  51.110606683 

-------------------------   ----------------
Dispersion correction           -0.034282427
-------------------------   ----------------


-------------------------   --------------------
FINAL SINGLE POINT ENERGY      -529.844362263943
-------------------------   --------------------

                                *** OPTIMIZATION RUN DONE ***

                            ***************************************
                            *     ORCA property calculations      *
                            ***************************************

                                    ---------------------
                                    Active property flags
                                    ---------------------
   (+) Dipole Moment


------------------------------------------------------------------------------
                       ORCA ELECTRIC PROPERTIES CALCULATION
------------------------------------------------------------------------------

Dipole Moment Calculation                       ... on
Quadrupole Moment Calculation                   ... off
Polarizability Calculation                      ... off
GBWName                                         ... AT-v/e/frag_24_c00001.gbw
Electron density file                           ... AT-v/e/frag_24_c00001.scfp.tmp
The origin for moment calculation is the CENTER OF MASS  = (-1.448138, -1.507889 -0.013883)

-------------
DIPOLE MOMENT
-------------
                                X             Y             Z
Electronic contribution:      6.49030       0.00152      -0.23594
Nuclear contribution   :     -5.88627       0.94465       0.23932
                        -----------------------------------------
Total Dipole Moment    :      0.60403       0.94618       0.00337
                        -----------------------------------------
Magnitude (a.u.)       :      1.12255
Magnitude (Debye)      :      2.85329


Timings for individual modules:

Sum of individual times         ...      193.565 sec (=   3.226 min)
GTO integral calculation        ...        4.593 sec (=   0.077 min)   2.4 %
SCF iterations                  ...      154.951 sec (=   2.583 min)  80.1 %
SCF Gradient evaluation         ...       32.636 sec (=   0.544 min)  16.9 %
Geometry relaxation             ...        1.385 sec (=   0.023 min)   0.7 %
                             ****ORCA TERMINATED NORMALLY****
TOTAL RUN TIME: 0 days 0 hours 3 minutes 15 seconds 250 msec
