
                                 *****************
                                 * O   R   C   A *
                                 *****************

           --- An Ab Initio, DFT and Semiempirical electronic structure package ---

                  #######################################################
                  #                        -***-                        #
                  #  Department of molecular theory and spectroscopy    #
                  #              Directorship: Frank Neese              #
                  # Max Planck Institute for Chemical Energy Conversion #
                  #                  D-45470 Muelheim/Ruhr              #
                  #                       Germany                       #
                  #                                                     #
                  #                  All rights reserved                #
                  #                        -***-                        #
                  #######################################################


                         Program Version 4.0.1.2 - RELEASE -


 With contributions from (in alphabetic order):
   Daniel Aravena         : Magnetic Properties
   Michael Atanasov       : Ab Initio Ligand Field Theory
   Ute Becker             : Parallelization
   Martin Brehm           : Molecular dynamics
   Dmytro Bykov           : SCF Hessian
   Vijay G. Chilkuri      : MRCI spin determinant printing
   Dipayan Datta          : RHF DLPNO-CCSD density
   Achintya Kumar Dutta   : EOM-CC, STEOM-CC
   Dmitry Ganyushin       : Spin-Orbit,Spin-Spin,Magnetic field MRCI
   Yang Guo               : DLPNO-NEVPT2, CIM, IAO-localization
   Andreas Hansen         : Spin unrestricted coupled pair/coupled cluster methods
   Lee Huntington         : MR-EOM, pCC
   Robert Izsak           : Overlap fitted RIJCOSX, COSX-SCS-MP3, EOM
   Christian Kollmar      : KDIIS, OOCD, Brueckner-CCSD(T), CCSD density
   Simone Kossmann        : Meta GGA functionals, TD-DFT gradient, OOMP2, MP2 Hessian
   Martin Krupicka        : AUTO-CI
   Dagmar Lenk            : GEPOL surface
   Dimitrios Liakos       : Extrapolation schemes; parallel MDCI
   Dimitrios Manganas     : ROCIS; embedding schemes
   Dimitrios Pantazis     : SARC Basis sets
   Taras Petrenko         : DFT Hessian,TD-DFT gradient, ASA, ECA, R-Raman, ABS, FL, XAS/XES, NRVS
   Peter Pinski           : DLPNO-MP2
   Christoph Reimann      : Effective Core Potentials
   Marius Retegan         : Local ZFS, SOC
   Christoph Riplinger    : Optimizer, TS searches, QM/MM, DLPNO-CCSD(T), (RO)-DLPNO pert. Triples
   Tobias Risthaus        : Range-separated hybrids, TD-DFT gradient, RPA, STAB
   Michael Roemelt        : Restricted open shell CIS
   Masaaki Saitow         : Open-shell DLPNO
   Barbara Sandhoefer     : DKH picture change effects
   Kantharuban Sivalingam : CASSCF convergence, NEVPT2, FIC-MRCI
   Georgi Stoychev        : AutoAux
   Boris Wezisla          : Elementary symmetry handling
   Frank Wennmohs         : Technical directorship


 We gratefully acknowledge several colleagues who have allowed us to
 interface, adapt or use parts of their codes:
   Stefan Grimme, W. Hujo, H. Kruse,             : VdW corrections, initial TS optimization,
                  C. Bannwarth                     DFT functionals, gCP, sTDA/sTD-DF
   Ed Valeev                                     : LibInt (2-el integral package), F12 methods
   Garnet Chan, S. Sharma, J. Yang, R. Olivares  : DMRG
   Ulf Ekstrom                                   : XCFun DFT Library
   Mihaly Kallay                                 : mrcc  (arbitrary order and MRCC methods)
   Andreas Klamt, Michael Diedenhofen            : otool_cosmo (COSMO solvation model)
   Jiri Pittner, Ondrej Demel                    : Mk-CCSD
   Frank Weinhold                                : gennbo (NPA and NBO analysis)
   Christopher J. Cramer and Donald G. Truhlar   : smd solvation model


 Your calculation uses the libint2 library for the computation of 2-el integrals
 For citations please refer to: http://libint.valeyev.net

 This ORCA versions uses:
   CBLAS   interface :  Fast vector & matrix operations
   LAPACKE interface :  Fast linear algebra routines
   SCALAPACK package :  Parallel linear algebra routines


Your calculation utilizes the atom-pairwise dispersion correction
with the Becke-Johnson damping scheme (D3BJ)
Cite in your paper:
S.Grimme, S.Ehrlich, L.Goerigk, J Comput Chem, (2011), 32, 1456–1465 
S.Grimme, J.Antony, S.Ehrlich and H.Krieg, J.Chem.Phys., 132, (2010), 154104 
   

Your calculation utilizes the basis: cc-pVDZ 
       H, B-Ne : Obtained from the ccRepo (grant-hill.group.shef.ac.uk/ccrepo) Feb. 2017
                 T. H. Dunning, Jr., J. Chem. Phys. 90, 1007 (1989)
            He : Obtained from the ccRepo (grant-hill.group.shef.ac.uk/ccrepo) Feb. 2017
                 D. E. Woon, T. H. Dunning, Jr., J. Chem. Phys. 100, 2975 (1994)
  Li-Be, Na-Mg : Obtained from the ccRepo (grant-hill.group.shef.ac.uk/ccrepo) Feb. 2017
                 B. P. Prascher, D. E. Woon, K. A. Peterson, T. H. Dunning, Jr., A. K. Wilson, Theor. Chem. Acc. 128, 69 (2011)
         Al-Ar : Obtained from the ccRepo (grant-hill.group.shef.ac.uk/ccrepo) Feb. 2017
                 D. E. Woon, T. H. Dunning, Jr., J. Chem. Phys. 98, 1358 (1993)
            Ca : Obtained from the Peterson Research Group Website (tyr0.chem.wsu.edu/~kipeters) Feb. 2017
                 J. Koput, K. A. Peterson, J. Phys. Chem. 106, 9595 (2002)
         Sc-Zn : Obtained from the ccRepo (grant-hill.group.shef.ac.uk/ccrepo) Feb. 2017
                 N. B. Balabanov, K. A. Peterson, J. Chem. Phys. 123, 064107 (2005)
                 N. B. Balabanov, K. A. Peterson, J. Chem. Phys. 125, 074110 (2006)
         Ga-Kr : Obtained from the ccRepo (grant-hill.group.shef.ac.uk/ccrepo) Feb. 2017
                 A. K. Wilson, D. E. Woon, K. A. Peterson, T. H. Dunning, Jr., J. Chem. Phys. 110, 7667 (1999)

Your calculation utilizes the auxiliary basis: def2/J
   F. Weigend, Phys. Chem. Chem. Phys. 8, 1057 (2006).

================================================================================
                                        WARNINGS
                       Please study these warnings very carefully!
================================================================================

Warning: TCutStore was < 0. Adjusted to Thresh (uncritical)

WARNING: Geometry Optimization
  ===> : Switching off AutoStart
         For restart on a previous wavefunction, please use MOREAD

INFO   : the flag for use of LIBINT has been found!

================================================================================
                                       INPUT FILE
================================================================================
NAME = g8raf/frag_33_c00001.com
|  1> %pal nprocs 6 end
|  2> %maxcore 1000
|  3> ! b3lyp TIGHTSCF nopop D3BJ
|  4> ! cc-pvdz def2/J RIJCOSX
|  5> ! Opt
|  6> 
|  7> %geom
|  8> maxiter 60
|  9> TolE 1e-4
| 10> TolRMSG 2e-3
| 11> TolMaxG 3e-3
| 12> TolRMSD 2e-2
| 13> TolMaxD 3e-2
| 14> end
| 15> 
| 16> *xyz 0 1
| 17> N -3.9818 1.6754 -0.0152
| 18> C -2.4202 -0.9109 -0.032
| 19> O -1.8445 -1.9934 -0.0385
| 20> C -3.9001 -0.7924 0.0014
| 21> C -4.6572 -2.0851 0.0304
| 22> C -4.502 0.4064 0.0074
| 23> H -3.0536 1.7716 -0.4173
| 24> H -4.6247 2.3805 -0.374
| 25> H -1.8538 0.033 -0.0386
| 26> H -4.4316 -2.6822 -0.8594
| 27> H -5.7405 -1.925 0.0546
| 28> H -4.3895 -2.667 0.9186
| 29> H -5.5915 0.4382 0.0608
| 30> *
| 31> 
| 32> 
| 33>                          ****END OF INPUT****
================================================================================

                       *****************************
                       * Geometry Optimization Run *
                       *****************************

Geometry optimization settings:
Update method            Update   .... BFGS
Choice of coordinates    CoordSys .... Redundant Internals
Initial Hessian          InHess   .... Almoef's Model

Convergence Tolerances:
Energy Change            TolE     ....  1.0000e-04 Eh
Max. Gradient            TolMAXG  ....  3.0000e-03 Eh/bohr
RMS Gradient             TolRMSG  ....  2.0000e-03 Eh/bohr
Max. Displacement        TolMAXD  ....  3.0000e-02 bohr
RMS Displacement         TolRMSD  ....  2.0000e-02 bohr

------------------------------------------------------------------------------
                        ORCA OPTIMIZATION COORDINATE SETUP
------------------------------------------------------------------------------

The optimization will be done in new redundant internal coordinates
Making redundant internal coordinates   ...  (new redundants) done
Evaluating the initial hessian          ...  (Almloef) done
Evaluating the coordinates              ...  done
Calculating the B-matrix                .... done
Calculating the G-matrix                .... done
Diagonalizing the G-matrix              .... done
The first mode is                       ....   15
The number of degrees of freedom        ....   33

    -----------------------------------------------------------------
                    Redundant Internal Coordinates


    -----------------------------------------------------------------
         Definition                    Initial Value    Approx d2E/dq
    -----------------------------------------------------------------
      1. B(O   2,C   1)                  1.2261         1.021868   
      2. B(C   3,C   1)                  1.4850         0.440709   
      3. B(C   4,C   3)                  1.4984         0.419604   
      4. B(C   5,C   3)                  1.3414         0.746836   
      5. B(C   5,N   0)                  1.3717         0.598576   
      6. B(H   6,N   0)                  1.0161         0.423093   
      7. B(H   7,N   0)                  1.0194         0.417985   
      8. B(H   8,C   1)                  1.1008         0.346070   
      9. B(H   9,C   4)                  1.0951         0.353461   
     10. B(H  10,C   4)                  1.0953         0.353112   
     11. B(H  11,C   4)                  1.0951         0.353460   
     12. B(H  12,C   5)                  1.0913         0.358422   
     13. A(H   6,N   0,H   7)          111.7972         0.300506   
     14. A(C   5,N   0,H   6)          116.1383         0.355173   
     15. A(C   5,N   0,H   7)          113.9865         0.354443   
     16. A(O   2,C   1,H   8)          121.0252         0.379453   
     17. A(C   3,C   1,H   8)          116.3893         0.331100   
     18. A(O   2,C   1,C   3)          122.5815         0.443713   
     19. A(C   1,C   3,C   5)          121.2362         0.422154   
     20. A(C   1,C   3,C   4)          115.7938         0.381398   
     21. A(C   4,C   3,C   5)          122.9698         0.418475   
     22. A(C   3,C   4,H  11)          110.5253         0.329574   
     23. A(H   9,C   4,H  10)          107.5419         0.289102   
     24. A(C   3,C   4,H  10)          111.9660         0.329520   
     25. A(C   3,C   4,H   9)          110.5239         0.329574   
     26. A(H   9,C   4,H  11)          108.5994         0.289146   
     27. A(H  10,C   4,H  11)          107.5492         0.289102   
     28. A(N   0,C   5,C   3)          131.0364         0.443122   
     29. A(C   3,C   5,H  12)          118.3094         0.363973   
     30. A(N   0,C   5,H  12)          110.6389         0.348388   
     31. D(C   4,C   3,C   1,O   2)      0.1458         0.013252   
     32. D(C   5,C   3,C   1,O   2)   -179.9812         0.013252   
     33. D(C   5,C   3,C   1,H   8)      0.7379         0.013252   
     34. D(C   4,C   3,C   1,H   8)   -179.1350         0.013252   
     35. D(H  10,C   4,C   3,C   1)    179.9776         0.013020   
     36. D(H   9,C   4,C   3,C   5)    119.9759         0.013020   
     37. D(H  11,C   4,C   3,C   5)   -119.7718         0.013020   
     38. D(H  11,C   4,C   3,C   1)     60.0987         0.013020   
     39. D(H  10,C   4,C   3,C   5)      0.1071         0.013020   
     40. D(H   9,C   4,C   3,C   1)    -60.1536         0.013020   
     41. D(H  12,C   5,N   0,H   7)    -24.8486         0.028861   
     42. D(H  12,C   5,N   0,H   6)   -156.9979         0.028861   
     43. D(C   3,C   5,N   0,H   7)    156.6314         0.028861   
     44. D(N   0,C   5,C   3,C   1)      0.1229         0.039745   
     45. D(C   3,C   5,N   0,H   6)     24.4821         0.028861   
     46. D(H  12,C   5,C   3,C   4)      1.5598         0.039745   
     47. D(H  12,C   5,C   3,C   1)   -178.3039         0.039745   
     48. D(N   0,C   5,C   3,C   4)    179.9866         0.039745   
    -----------------------------------------------------------------

Number of atoms                         .... 13
Number of degrees of freedom            .... 48

         *************************************************************
         *                GEOMETRY OPTIMIZATION CYCLE   1            *
         *************************************************************
---------------------------------
CARTESIAN COORDINATES (ANGSTROEM)
---------------------------------
  N     -3.981800    1.675400   -0.015200
  C     -2.420200   -0.910900   -0.032000
  O     -1.844500   -1.993400   -0.038500
  C     -3.900100   -0.792400    0.001400
  C     -4.657200   -2.085100    0.030400
  C     -4.502000    0.406400    0.007400
  H     -3.053600    1.771600   -0.417300
  H     -4.624700    2.380500   -0.374000
  H     -1.853800    0.033000   -0.038600
  H     -4.431600   -2.682200   -0.859400
  H     -5.740500   -1.925000    0.054600
  H     -4.389500   -2.667000    0.918600
  H     -5.591500    0.438200    0.060800

----------------------------
CARTESIAN COORDINATES (A.U.)
----------------------------
  NO LB      ZA    FRAG     MASS         X           Y           Z
   0 N     7.0000    0    14.007   -7.524512    3.166047   -0.028724
   1 C     6.0000    0    12.011   -4.573515   -1.721352   -0.060471
   2 O     8.0000    0    15.999   -3.485600   -3.766980   -0.072754
   3 C     6.0000    0    12.011   -7.370121   -1.497419    0.002646
   4 C     6.0000    0    12.011   -8.800833   -3.940268    0.057448
   5 C     6.0000    0    12.011   -8.507547    0.767985    0.013984
   6 H     1.0000    0     1.008   -5.770468    3.347839   -0.788583
   7 H     1.0000    0     1.008   -8.739416    4.498493   -0.706758
   8 H     1.0000    0     1.008   -3.503174    0.062361   -0.072943
   9 H     1.0000    0     1.008   -8.374510   -5.068623   -1.624031
  10 H     1.0000    0     1.008  -10.847973   -3.637723    0.103179
  11 H     1.0000    0     1.008   -8.294953   -5.039900    1.735902
  12 H     1.0000    0     1.008  -10.566404    0.828078    0.114895

--------------------------------
INTERNAL COORDINATES (ANGSTROEM)
--------------------------------
 N      0   0   0     0.000000000000     0.00000000     0.00000000
 C      1   0   0     3.021228970138     0.00000000     0.00000000
 O      2   1   0     1.226082782686   176.88169892     0.00000000
 C      2   1   3     1.485012397255    54.30070123   358.90629672
 C      4   2   1     1.498370681774   115.79381209   180.07521627
 C      4   2   1     1.341432461960   121.23623871   359.94816679
 H      1   2   3     1.016117163520    66.83940402   205.07878029
 H      1   2   3     1.019423297752   156.36327591   296.79020162
 H      2   1   7     1.100817755126    62.09306114    24.78565512
 H      5   4   2     1.095065208104   110.52386758   299.84639674
 H      5   4   2     1.095333985595   111.96598532   179.97763484
 H      5   4   2     1.095066271967   110.52530276    60.09867089
 H      6   4   2     1.091271299907   118.30935007   181.69614206

---------------------------
INTERNAL COORDINATES (A.U.)
---------------------------
 N      0   0   0     0.000000000000     0.00000000     0.00000000
 C      1   0   0     5.709295341429     0.00000000     0.00000000
 O      2   1   0     2.316960676793   176.88169892     0.00000000
 C      2   1   3     2.806266736289    54.30070123   358.90629672
 C      4   2   1     2.831510235650   115.79381209   180.07521627
 C      4   2   1     2.534939980256   121.23623871   359.94816679
 H      1   2   3     1.920183159030    66.83940402   205.07878029
 H      1   2   3     1.926430847291   156.36327591   296.79020162
 H      2   1   7     2.080244080546    62.09306114    24.78565512
 H      5   4   2     2.069373342102   110.52386758   299.84639674
 H      5   4   2     2.069881257951   111.96598532   179.97763484
 H      5   4   2     2.069375352512   110.52530276    60.09867089
 H      6   4   2     2.062203894632   118.30935007   181.69614206

---------------------
BASIS SET INFORMATION
---------------------
There are 4 groups of distinct atoms

 Group   1 Type N   : 17s4p1d contracted to 3s2p1d pattern {881/31/1}
 Group   2 Type C   : 17s4p1d contracted to 3s2p1d pattern {881/31/1}
 Group   3 Type O   : 17s4p1d contracted to 3s2p1d pattern {881/31/1}
 Group   4 Type H   : 4s1p contracted to 2s1p pattern {31/1}

Atom   0N    basis set group =>   1
Atom   1C    basis set group =>   2
Atom   2O    basis set group =>   3
Atom   3C    basis set group =>   2
Atom   4C    basis set group =>   2
Atom   5C    basis set group =>   2
Atom   6H    basis set group =>   4
Atom   7H    basis set group =>   4
Atom   8H    basis set group =>   4
Atom   9H    basis set group =>   4
Atom  10H    basis set group =>   4
Atom  11H    basis set group =>   4
Atom  12H    basis set group =>   4
-------------------------------
AUXILIARY BASIS SET INFORMATION
-------------------------------
There are 4 groups of distinct atoms

 Group   1 Type N   : 12s5p4d2f1g contracted to 6s4p3d1f1g pattern {711111/2111/211/2/1}
 Group   2 Type C   : 12s5p4d2f1g contracted to 6s4p3d1f1g pattern {711111/2111/211/2/1}
 Group   3 Type O   : 12s5p4d2f1g contracted to 6s4p3d1f1g pattern {711111/2111/211/2/1}
 Group   4 Type H   : 5s2p1d contracted to 3s1p1d pattern {311/2/1}

Atom   0N    basis set group =>   1
Atom   1C    basis set group =>   2
Atom   2O    basis set group =>   3
Atom   3C    basis set group =>   2
Atom   4C    basis set group =>   2
Atom   5C    basis set group =>   2
Atom   6H    basis set group =>   4
Atom   7H    basis set group =>   4
Atom   8H    basis set group =>   4
Atom   9H    basis set group =>   4
Atom  10H    basis set group =>   4
Atom  11H    basis set group =>   4
Atom  12H    basis set group =>   4


           ************************************************************
           *        Program running with 6 parallel MPI-processes     *
           *              working on a common directory               *
           ************************************************************
------------------------------------------------------------------------------
                           ORCA GTO INTEGRAL CALCULATION
                           -- RI-GTO INTEGRALS CHOSEN --
------------------------------------------------------------------------------

                         BASIS SET STATISTICS AND STARTUP INFO

Gaussian basis set:
 # of primitive gaussian shells          ...  167
 # of primitive gaussian functions       ...  253
 # of contracted shells                  ...   57
 # of contracted basis functions         ...  119
 Highest angular momentum                ...    2
 Maximum contraction depth               ...    8
Auxiliary gaussian basis set:
 # of primitive gaussian shells          ...  200
 # of primitive gaussian functions       ...  532
 # of contracted shells                  ...  125
 # of contracted aux-basis functions     ...  371
 Highest angular momentum                ...    4
 Maximum contraction depth               ...    7
Ratio of auxiliary to basis functions    ...  3.12
Integral package used                  ... LIBINT
 One Electron integrals                  ... done
 Ordering auxiliary basis shells         ... done
 Integral threshhold             Thresh  ...  2.500e-11
 Primitive cut-off               TCut    ...  2.500e-12
 Pre-screening matrix                    ... done
 Shell pair data                         ... 
 Ordering of the shell pairs             ... done (   0.000 sec) 1632 of 1653 pairs
 Determination of significant pairs      ... done (   0.000 sec)
 Creation of shell pair data             ... done (   0.001 sec)
 Storage of shell pair data              ... done (   0.002 sec)
 Shell pair data done in (   0.003 sec)
 Computing two index integrals           ... done
 Cholesky decomposition of the V-matrix  ... done


Timings:
 Total evaluation time                   ...   0.339 sec (  0.006 min)
 One electron matrix time                ...   0.031 sec (  0.001 min) =  9.1%
 Schwartz matrix evaluation time         ...   0.270 sec (  0.005 min) = 79.8%
 Two index repulsion integral time       ...   0.009 sec (  0.000 min) =  2.8%
 Cholesky decomposition of V             ...   0.004 sec (  0.000 min) =  1.3%
 Three index repulsion integral time     ...   0.000 sec (  0.000 min) =  0.0%



           ************************************************************
           *        Program running with 6 parallel MPI-processes     *
           *              working on a common directory               *
           ************************************************************
-------------------------------------------------------------------------------
                                 ORCA SCF
-------------------------------------------------------------------------------

------------
SCF SETTINGS
------------
Hamiltonian:
 Density Functional     Method          .... DFT(GTOs)
 Exchange Functional    Exchange        .... B88
   X-Alpha parameter    XAlpha          ....  0.666667
   Becke's b parameter  XBeta           ....  0.004200
 Correlation Functional Correlation     .... LYP
 LDA part of GGA corr.  LDAOpt          .... VWN-5
 Gradients option       PostSCFGGA      .... off
 Hybrid DFT is turned on
   Fraction HF Exchange ScalHFX         ....  0.200000
   Scaling of DF-GGA-X  ScalDFX         ....  0.720000
   Scaling of DF-GGA-C  ScalDFC         ....  0.810000
   Scaling of DF-LDA-C  ScalLDAC        ....  1.000000
   Perturbative correction              ....  0.000000
   NL short-range parameter             ....  4.800000
 RI-approximation to the Coulomb term is turned on
   Number of auxiliary basis functions  .... 371
   RIJ-COSX (HFX calculated with COS-X)).... on


General Settings:
 Integral files         IntName         .... g8raf/frag_33_c00001
 Hartree-Fock type      HFTyp           .... RHF
 Total Charge           Charge          ....    0
 Multiplicity           Mult            ....    1
 Number of Electrons    NEL             ....   46
 Basis Dimension        Dim             ....  119
 Nuclear Repulsion      ENuc            ....    222.4498477189 Eh

Convergence Acceleration:
 DIIS                   CNVDIIS         .... on
   Start iteration      DIISMaxIt       ....    12
   Startup error        DIISStart       ....  0.200000
   # of expansion vecs  DIISMaxEq       ....     5
   Bias factor          DIISBfac        ....   1.050
   Max. coefficient     DIISMaxC        ....  10.000
 Newton-Raphson         CNVNR           .... off
 SOSCF                  CNVSOSCF        .... on
   Start iteration      SOSCFMaxIt      ....   150
   Startup grad/error   SOSCFStart      ....  0.003300
 Level Shifting         CNVShift        .... on
   Level shift para.    LevelShift      ....    0.2500
   Turn off err/grad.   ShiftErr        ....    0.0010
 Zerner damping         CNVZerner       .... off
 Static damping         CNVDamp         .... on
   Fraction old density DampFac         ....    0.7000
   Max. Damping (<1)    DampMax         ....    0.9800
   Min. Damping (>=0)   DampMin         ....    0.0000
   Turn off err/grad.   DampErr         ....    0.1000
 Fernandez-Rico         CNVRico         .... off

SCF Procedure:
 Maximum # iterations   MaxIter         ....   125
 SCF integral mode      SCFMode         .... Direct
   Integral package                     .... LIBINT
 Reset frequeny         DirectResetFreq ....    20
 Integral Threshold     Thresh          ....  2.500e-11 Eh
 Primitive CutOff       TCut            ....  2.500e-12 Eh

Convergence Tolerance:
 Convergence Check Mode ConvCheckMode   .... Total+1el-Energy
 Convergence forced     ConvForced      .... 0
 Energy Change          TolE            ....  1.000e-08 Eh
 1-El. energy change                    ....  1.000e-05 Eh
 Orbital Gradient       TolG            ....  1.000e-05
 Orbital Rotation angle TolX            ....  1.000e-05
 DIIS Error             TolErr          ....  5.000e-07


Diagonalization of the overlap matrix:
Smallest eigenvalue                        ... 1.301e-03
Time for diagonalization                   ...    0.004 sec
Threshold for overlap eigenvalues          ... 1.000e-08
Number of eigenvalues below threshold      ... 0
Time for construction of square roots      ...    0.002 sec
Total time needed                          ...    0.006 sec

-------------------
DFT GRID GENERATION
-------------------

General Integration Accuracy     IntAcc      ...  4.340
Radial Grid Type                 RadialGrid  ... Gauss-Chebyshev
Angular Grid (max. acc.)         AngularGrid ... Lebedev-110
Angular grid pruning method      GridPruning ... 3 (G Style)
Weight generation scheme         WeightScheme... Becke
Basis function cutoff            BFCut       ...    1.0000e-11
Integration weight cutoff        WCut        ...    1.0000e-14
Grids for H and He will be reduced by one unit

# of grid points (after initial pruning)     ...  15600 (   0.0 sec)
# of grid points (after weights+screening)   ...  14688 (   0.0 sec)
nearest neighbour list constructed           ...    0.0 sec
Grid point re-assignment to atoms done       ...    0.0 sec
Grid point division into batches done        ...    0.0 sec
Reduced shell lists constructed in    0.0 sec

Total number of grid points                  ...    14688
Total number of batches                      ...      237
Average number of points per batch           ...       61
Average number of grid points per atom       ...     1130
Average number of shells per batch           ...    47.41 (83.18%)
Average number of basis functions per batch  ...    96.88 (81.41%)
Average number of large shells per batch     ...    37.54 (79.17%)
Average number of large basis fcns per batch ...    76.71 (79.18%)
Maximum spatial batch extension              ...  16.66, 16.66, 25.60 au
Average spatial batch extension              ...   0.57,  0.58,  0.72 au

Time for grid setup =    0.069 sec

------------------------------
INITIAL GUESS: MODEL POTENTIAL
------------------------------
Loading Hartree-Fock densities                     ... done
Calculating cut-offs                               ... done
Setting up the integral package                    ... done
Initializing the effective Hamiltonian             ... done
Starting the Coulomb interaction                   ... done (   0.0 sec)
Reading the grid                                   ... done
Mapping shells                                     ... done
Starting the XC term evaluation                    ... done (   0.1 sec)
  promolecular density results
     # of electrons  =     46.008624629
     EX              =    -37.389951722
     EC              =     -1.536003839
     EX+EC           =    -38.925955560
Transforming the Hamiltonian                       ... done (   0.0 sec)
Diagonalizing the Hamiltonian                      ... done (   0.0 sec)
Back transforming the eigenvectors                 ... done (   0.0 sec)
Now organizing SCF variables                       ... done
                      ------------------
                      INITIAL GUESS DONE (   0.3 sec)
                      ------------------
--------------------
COSX GRID GENERATION
--------------------

General Integration Accuracy     IntAcc      ...  3.340
Radial Grid Type                 RadialGrid  ... Gauss-Chebyshev
Angular Grid (max. acc.)         AngularGrid ... Lebedev-50
Angular grid pruning method      GridPruning ... 3 (G Style)
Weight generation scheme         WeightScheme... Becke
Basis function cutoff            BFCut       ...    1.0000e-11
Integration weight cutoff        WCut        ...    1.0000e-14
Grids for H and He will be reduced by one unit

# of grid points (after initial pruning)     ...   5706 (   0.0 sec)
# of grid points (after weights+screening)   ...   5404 (   0.0 sec)
nearest neighbour list constructed           ...    0.0 sec
Grid point re-assignment to atoms done       ...    0.0 sec
Grid point division into batches done        ...    0.0 sec
Reduced shell lists constructed in    0.0 sec

Total number of grid points                  ...     5404
Total number of batches                      ...       92
Average number of points per batch           ...       58
Average number of grid points per atom       ...      416
Average number of shells per batch           ...    48.76 (85.55%)
Average number of basis functions per batch  ...   100.06 (84.08%)
Average number of large shells per batch     ...    39.88 (81.79%)
Average number of large basis fcns per batch ...    82.35 (82.30%)
Maximum spatial batch extension              ...  11.77,  8.88, 12.62 au
Average spatial batch extension              ...   0.58,  0.47,  0.72 au

Overlap Fitting                  UseSFitting ... on
Constructing numerical overlap ... done (      0.0 sec)
Inverting numerical overlap    ... done (      0.0 sec)
Obtaining analytic overlap     ... done (      0.0 sec)
Final contraction and storage  ... done (      0.0 sec)


General Integration Accuracy     IntAcc      ...  3.670
Radial Grid Type                 RadialGrid  ... Gauss-Chebyshev
Angular Grid (max. acc.)         AngularGrid ... Lebedev-50
Angular grid pruning method      GridPruning ... 3 (G Style)
Weight generation scheme         WeightScheme... Becke
Basis function cutoff            BFCut       ...    1.0000e-11
Integration weight cutoff        WCut        ...    1.0000e-14
Grids for H and He will be reduced by one unit

# of grid points (after initial pruning)     ...   7312 (   0.0 sec)
# of grid points (after weights+screening)   ...   6900 (   0.0 sec)
nearest neighbour list constructed           ...    0.0 sec
Grid point re-assignment to atoms done       ...    0.0 sec
Grid point division into batches done        ...    0.0 sec
Reduced shell lists constructed in    0.0 sec

Total number of grid points                  ...     6900
Total number of batches                      ...      112
Average number of points per batch           ...       61
Average number of grid points per atom       ...      531
Average number of shells per batch           ...    48.20 (84.56%)
Average number of basis functions per batch  ...    98.60 (82.86%)
Average number of large shells per batch     ...    38.70 (80.29%)
Average number of large basis fcns per batch ...    79.60 (80.73%)
Maximum spatial batch extension              ...  16.03, 14.03, 22.74 au
Average spatial batch extension              ...   0.57,  0.57,  0.80 au

Overlap Fitting                  UseSFitting ... on
Constructing numerical overlap ... done (      0.0 sec)
Inverting numerical overlap    ... done (      0.0 sec)
Obtaining analytic overlap     ... done (      0.0 sec)
Final contraction and storage  ... done (      0.0 sec)


General Integration Accuracy     IntAcc      ...  4.010
Radial Grid Type                 RadialGrid  ... Gauss-Chebyshev
Angular Grid (max. acc.)         AngularGrid ... Lebedev-110
Angular grid pruning method      GridPruning ... 3 (G Style)
Weight generation scheme         WeightScheme... Becke
Basis function cutoff            BFCut       ...    1.0000e-11
Integration weight cutoff        WCut        ...    1.0000e-14
Grids for H and He will be reduced by one unit

# of grid points (after initial pruning)     ...  13438 (   0.0 sec)
# of grid points (after weights+screening)   ...  12655 (   0.0 sec)
nearest neighbour list constructed           ...    0.0 sec
Grid point re-assignment to atoms done       ...    0.0 sec
Grid point division into batches done        ...    0.0 sec
Reduced shell lists constructed in    0.0 sec

Total number of grid points                  ...    12655
Total number of batches                      ...      205
Average number of points per batch           ...       61
Average number of grid points per atom       ...      973
Average number of shells per batch           ...    47.78 (83.82%)
Average number of basis functions per batch  ...    97.56 (81.98%)
Average number of large shells per batch     ...    38.03 (79.59%)
Average number of large basis fcns per batch ...    77.92 (79.87%)
Maximum spatial batch extension              ...  16.07, 15.27, 24.23 au
Average spatial batch extension              ...   0.59,  0.59,  0.76 au

Overlap Fitting                  UseSFitting ... on
Constructing numerical overlap ... done (      0.0 sec)
Inverting numerical overlap    ... done (      0.0 sec)
Obtaining analytic overlap     ... done (      0.0 sec)
Final contraction and storage  ... done (      0.0 sec)

Time for X-Grid setup             =    0.225 sec
--------------
SCF ITERATIONS
--------------
ITER       Energy         Delta-E        Max-DP      RMS-DP      [F,P]     Damp
               ***  Starting incremental Fock matrix formation  ***
  0   -286.2111782029   0.000000000000 0.10222382  0.00359682  0.2653253 0.7000
  1   -286.3202441022  -0.109065899284 0.06065334  0.00231557  0.1044305 0.7000
                               ***Turning on DIIS***
  2   -286.3595971852  -0.039353083029 0.06842767  0.00317495  0.0388471 0.0000
  3   -286.4238132137  -0.064216028500 0.04547036  0.00172495  0.0539811 0.0000
  4   -286.4375794747  -0.013766261063 0.01084677  0.00048866  0.0204746 0.0000
  5   -286.4388608614  -0.001281386655 0.00488630  0.00016322  0.0057112 0.0000
                      *** Initiating the SOSCF procedure ***
                           *** Shutting down DIIS ***
                      *** Re-Reading the Fockian *** 
                      *** Removing any level shift *** 
ITER      Energy       Delta-E        Grad      Rot      Max-DP    RMS-DP
  6   -286.43893573  -0.0000748721  0.000324  0.000324  0.001704  0.000056
               *** Restarting incremental Fock matrix formation ***
  7   -286.43895074  -0.0000150084  0.000165  0.000636  0.001221  0.000042
  8   -286.43895129  -0.0000005443  0.000163  0.000364  0.000613  0.000016
  9   -286.43895179  -0.0000005065  0.000095  0.000256  0.000403  0.000013
 10   -286.43895179   0.0000000031  0.000061  0.000101  0.000162  0.000005
 11   -286.43895190  -0.0000001113  0.000025  0.000041  0.000099  0.000004
 12   -286.43895189   0.0000000084  0.000023  0.000031  0.000048  0.000002
 13   -286.43895190  -0.0000000122  0.000007  0.000019  0.000027  0.000001
 14   -286.43895191  -0.0000000037  0.000006  0.000007  0.000015  0.000000
                  ***Gradient check signals convergence***
              ***Rediagonalizing the Fockian in SOSCF/NRSCF***

               *****************************************************
               *                     SUCCESS                       *
               *           SCF CONVERGED AFTER  15 CYCLES          *
               *****************************************************

Setting up the final grid:

General Integration Accuracy     IntAcc      ...  4.670
Radial Grid Type                 RadialGrid  ... Gauss-Chebyshev
Angular Grid (max. acc.)         AngularGrid ... Lebedev-302
Angular grid pruning method      GridPruning ... 3 (G Style)
Weight generation scheme         WeightScheme... Becke
Basis function cutoff            BFCut       ...    1.0000e-11
Integration weight cutoff        WCut        ...    1.0000e-14
Grids for H and He will be reduced by one unit

# of grid points (after initial pruning)     ...  61030 (   0.0 sec)
# of grid points (after weights+screening)   ...  56681 (   0.1 sec)
nearest neighbour list constructed           ...    0.0 sec
Grid point re-assignment to atoms done       ...    0.0 sec
Grid point division into batches done        ...    0.2 sec
Reduced shell lists constructed in    0.3 sec

Total number of grid points                  ...    56681
Total number of batches                      ...      891
Average number of points per batch           ...       63
Average number of grid points per atom       ...     4360
Average number of shells per batch           ...    43.28 (75.93%)
Average number of basis functions per batch  ...    88.31 (74.21%)
Average number of large shells per batch     ...    33.51 (77.42%)
Average number of large basis fcns per batch ...    68.41 (77.47%)
Maximum spatial batch extension              ...  14.44, 14.57, 17.69 au
Average spatial batch extension              ...   0.42,  0.39,  0.48 au

Final grid set up in    0.4 sec
Final integration                            ... done (   0.2 sec)
Change in XC energy                          ...     0.001142630
Integrated number of electrons               ...    45.999995038
Previous integrated no of electrons          ...    46.008899729
Old exchange energy                            =     -7.610332502 Eh
New exchange energy                            =     -7.609999718 Eh
Exchange energy change after final integration =      0.000332784 Eh
Total energy after final integration           =   -286.437476491 Eh
Final COS-X integration done in                =     1.004 sec

----------------
TOTAL SCF ENERGY
----------------

Total Energy       :         -286.43747649 Eh           -7794.35999 eV

Components:
Nuclear Repulsion  :          222.44984772 Eh            6053.16809 eV
Electronic Energy  :         -508.88732421 Eh          -13847.52809 eV
One Electron Energy:         -828.57592627 Eh          -22546.69721 eV
Two Electron Energy:          319.68860206 Eh            8699.16912 eV

Virial components:
Potential Energy   :         -571.13138062 Eh          -15541.27497 eV
Kinetic Energy     :          284.69390413 Eh            7746.91498 eV
Virial Ratio       :            2.00612438


DFT components:
N(Alpha)           :       22.999997519010 electrons
N(Beta)            :       22.999997519010 electrons
N(Total)           :       45.999995038020 electrons
E(X)               :      -30.236711959603 Eh       
E(C)               :       -1.819594482239 Eh       
E(XC)              :      -32.056306441842 Eh       

---------------
SCF CONVERGENCE
---------------

  Last Energy change         ...    3.3752e-09  Tolerance :   1.0000e-08
  Last MAX-Density change    ...    4.7960e-14  Tolerance :   1.0000e-07
  Last RMS-Density change    ...    5.6742e-16  Tolerance :   5.0000e-09
  Last Orbital Gradient      ...    3.7809e-07  Tolerance :   1.0000e-05
  Last Orbital Rotation      ...    1.2642e-06  Tolerance :   1.0000e-05

             **** THE GBW FILE WAS UPDATED (g8raf/frag_33_c00001.gbw) ****
             **** DENSITY FILE WAS UPDATED (g8raf/frag_33_c00001.scfp.tmp) ****
             **** ENERGY FILE WAS UPDATED (g8raf/frag_33_c00001.en.tmp) ****
----------------
ORBITAL ENERGIES
----------------

  NO   OCC          E(Eh)            E(eV) 
   0   2.0000     -19.113383      -520.1016 
   1   2.0000     -14.360405      -390.7665 
   2   2.0000     -10.252961      -278.9973 
   3   2.0000     -10.236923      -278.5608 
   4   2.0000     -10.177650      -276.9479 
   5   2.0000     -10.173780      -276.8426 
   6   2.0000      -1.015502       -27.6332 
   7   2.0000      -0.935346       -25.4521 
   8   2.0000      -0.788275       -21.4501 
   9   2.0000      -0.677894       -18.4464 
  10   2.0000      -0.636525       -17.3207 
  11   2.0000      -0.545205       -14.8358 
  12   2.0000      -0.529869       -14.4185 
  13   2.0000      -0.499476       -13.5914 
  14   2.0000      -0.429938       -11.6992 
  15   2.0000      -0.417096       -11.3498 
  16   2.0000      -0.398725       -10.8499 
  17   2.0000      -0.380081       -10.3425 
  18   2.0000      -0.367172        -9.9913 
  19   2.0000      -0.362526        -9.8648 
  20   2.0000      -0.350414        -9.5353 
  21   2.0000      -0.234316        -6.3761 
  22   2.0000      -0.218786        -5.9535 
  23   0.0000      -0.034250        -0.9320 
  24   0.0000       0.035185         0.9574 
  25   0.0000       0.065533         1.7832 
  26   0.0000       0.084874         2.3095 
  27   0.0000       0.092747         2.5238 
  28   0.0000       0.119874         3.2619 
  29   0.0000       0.157882         4.2962 
  30   0.0000       0.163347         4.4449 
  31   0.0000       0.164809         4.4847 
  32   0.0000       0.232572         6.3286 
  33   0.0000       0.262917         7.1543 
  34   0.0000       0.275734         7.5031 
  35   0.0000       0.362347         9.8600 
  36   0.0000       0.376039        10.2325 
  37   0.0000       0.431908        11.7528 
  38   0.0000       0.452917        12.3245 
  39   0.0000       0.465174        12.6580 
  40   0.0000       0.481775        13.1098 
  41   0.0000       0.495092        13.4721 
  42   0.0000       0.530975        14.4486 
  43   0.0000       0.548862        14.9353 
  44   0.0000       0.561694        15.2845 
  45   0.0000       0.586010        15.9462 
  46   0.0000       0.619026        16.8445 
  47   0.0000       0.640194        17.4206 
  48   0.0000       0.645679        17.5698 
  49   0.0000       0.657045        17.8791 
  50   0.0000       0.662639        18.0313 
  51   0.0000       0.683814        18.6075 
  52   0.0000       0.698591        19.0096 
  53   0.0000       0.707653        19.2562 
  54   0.0000       0.755797        20.5663 
  55   0.0000       0.768517        20.9124 
  56   0.0000       0.819351        22.2957 
  57   0.0000       0.849041        23.1036 
  58   0.0000       0.863768        23.5043 
  59   0.0000       0.931338        25.3430 
  60   0.0000       0.941193        25.6112 
  61   0.0000       0.965769        26.2799 
  62   0.0000       0.989153        26.9162 
  63   0.0000       1.029832        28.0231 
  64   0.0000       1.064227        28.9591 
  65   0.0000       1.087871        29.6025 
  66   0.0000       1.095704        29.8156 
  67   0.0000       1.173737        31.9390 
  68   0.0000       1.175636        31.9907 
  69   0.0000       1.224073        33.3087 
  70   0.0000       1.287311        35.0295 
  71   0.0000       1.325741        36.0752 
  72   0.0000       1.334613        36.3167 
  73   0.0000       1.398976        38.0681 
  74   0.0000       1.435481        39.0614 
  75   0.0000       1.450346        39.4659 
  76   0.0000       1.528136        41.5827 
  77   0.0000       1.542794        41.9816 
  78   0.0000       1.558957        42.4214 
  79   0.0000       1.568666        42.6856 
  80   0.0000       1.579426        42.9784 
  81   0.0000       1.612864        43.8883 
  82   0.0000       1.644693        44.7544 
  83   0.0000       1.673115        45.5278 
  84   0.0000       1.694216        46.1020 
  85   0.0000       1.709925        46.5294 
  86   0.0000       1.724770        46.9334 
  87   0.0000       1.769995        48.1640 
  88   0.0000       1.774251        48.2798 
  89   0.0000       1.825309        49.6692 
  90   0.0000       1.830320        49.8055 
  91   0.0000       1.874398        51.0050 
  92   0.0000       1.916909        52.1618 
  93   0.0000       1.924558        52.3699 
  94   0.0000       1.948761        53.0285 
  95   0.0000       2.029764        55.2327 
  96   0.0000       2.045104        55.6501 
  97   0.0000       2.077321        56.5268 
  98   0.0000       2.100849        57.1670 
  99   0.0000       2.138131        58.1815 
 100   0.0000       2.209264        60.1171 
 101   0.0000       2.284765        62.1716 
 102   0.0000       2.349815        63.9417 
 103   0.0000       2.389085        65.0103 
 104   0.0000       2.437915        66.3390 
 105   0.0000       2.443354        66.4871 
 106   0.0000       2.467567        67.1459 
 107   0.0000       2.530593        68.8609 
 108   0.0000       2.583398        70.2978 
 109   0.0000       2.602561        70.8193 
 110   0.0000       2.707537        73.6758 
 111   0.0000       2.714843        73.8746 
 112   0.0000       2.731411        74.3255 
 113   0.0000       2.828268        76.9611 
 114   0.0000       2.977606        81.0248 
 115   0.0000       3.076055        83.7037 
 116   0.0000       3.156103        85.8819 
 117   0.0000       3.427225        93.2595 
 118   0.0000       3.468081        94.3713 
-------
TIMINGS
-------

Total SCF time: 0 days 0 hours 0 min 13 sec 

Total time                  ....      13.283 sec
Sum of individual times     ....      13.227 sec  ( 99.6%)

Fock matrix formation       ....      12.163 sec  ( 91.6%)
  Split-RI-J                ....       2.704 sec  ( 22.2% of F)
  Chain of spheres X        ....       8.324 sec  ( 68.4% of F)
  COS-X 1 center corr.      ....       0.000 sec  (  0.0% of F)
  XC integration            ....       1.013 sec  (  8.3% of F)
    Basis function eval.    ....       0.367 sec  ( 36.2% of XC)
    Density eval.           ....       0.151 sec  ( 15.0% of XC)
    XC-Functional eval.     ....       0.048 sec  (  4.8% of XC)
    XC-Potential eval.      ....       0.313 sec  ( 30.9% of XC)
Diagonalization             ....       0.026 sec  (  0.2%)
Density matrix formation    ....       0.007 sec  (  0.1%)
Population analysis         ....       0.000 sec  (  0.0%)
Initial guess               ....       0.201 sec  (  1.5%)
Orbital Transformation      ....       0.000 sec  (  0.0%)
Orbital Orthonormalization  ....       0.000 sec  (  0.0%)
DIIS solution               ....       0.008 sec  (  0.1%)
SOSCF solution              ....       0.108 sec  (  0.8%)
Grid generation             ....       0.714 sec  (  5.4%)


-------------------------------------------------------------------------------
                          DFT DISPERSION CORRECTION                            
                                                                               
                              DFTD3 V3.1  Rev 1                                
                          USING Becke-Johnson damping                          
-------------------------------------------------------------------------------
The B3LYP functional is recognized
Active option DFTDOPT                   ...         4   

molecular C6(AA) [au] = 1531.622269 


            DFT-D V3
 parameters
 s6 scaling factor         :     1.0000 
 a1 scaling factor         :     0.3981 
 s8 scaling factor         :     1.9889 
 a2 scaling factor         :     4.4211 
 ad hoc parameters k1-k3   :    16.0000     1.3333    -4.0000 

 Edisp/kcal,au: -10.620477498187  -0.016924806404 
 E6   /kcal   :  -5.110199714 
 E8   /kcal   :  -5.510277784 
 % E8         :  51.883522049 

-------------------------   ----------------
Dispersion correction           -0.016924806
-------------------------   ----------------


-------------------------   --------------------
FINAL SINGLE POINT ENERGY      -286.454401297063
-------------------------   --------------------



           ************************************************************
           *        Program running with 6 parallel MPI-processes     *
           *              working on a common directory               *
           ************************************************************
------------------------------------------------------------------------------
                         ORCA SCF GRADIENT CALCULATION
------------------------------------------------------------------------------

Gradient of the Kohn-Sham DFT energy:
Kohn-Sham wavefunction type      ... RKS
Hartree-Fock exchange scaling    ...    0.200
Number of operators              ...    1
Number of atoms                  ...   13
Basis set dimensions             ...  119
Integral neglect threshold       ... 2.5e-11
Integral primitive cutoff        ... 2.5e-12

Nuclear repulsion gradient       ... done
One Electron Gradient            ... done
Pre-screening matrix             ... done
RI-J gradient                    ... done
COSX-gradient                    ... done
Exchange-correlation gradient    ... done
Dispersion correction            ... done

------------------
CARTESIAN GRADIENT
------------------

   1   N   :   -0.005786159   -0.007889248    0.003860012
   2   C   :    0.020728047    0.018806315   -0.000206937
   3   O   :    0.000053414   -0.009671068    0.000173144
   4   C   :   -0.029783157    0.012228841    0.001093161
   5   C   :    0.003508846   -0.003562117   -0.001531358
   6   C   :    0.019997991   -0.012670283    0.001823688
   7   H   :   -0.000237434   -0.002139087   -0.002001312
   8   H   :   -0.003604122    0.002085435   -0.002117469
   9   H   :   -0.007697698   -0.009251127    0.000117482
  10   H   :   -0.002685403    0.004951168    0.001710930
  11   H   :    0.004407567   -0.002139173   -0.000094995
  12   H   :   -0.002634731    0.005438731   -0.001661139
  13   H   :    0.004941356    0.003369796   -0.001296402

Difference to translation invariance:
           :    0.0012085160   -0.0004418159   -0.0001311952

Norm of the cartesian gradient     ...    0.0541033042
RMS gradient                       ...    0.0086634622
MAX gradient                       ...    0.0297831572

-------
TIMINGS
-------

Total SCF gradient time            ...        2.701 sec

One electron gradient       ....       0.037 sec  (  1.4%)
Prescreening matrices       ....       0.055 sec  (  2.0%)
RI-J Coulomb gradient       ....       0.393 sec  ( 14.5%)
COSX gradient               ....       1.000 sec  ( 37.0%)
XC gradient                 ....       0.776 sec  ( 28.7%)
------------------------------------------------------------------------------
                         ORCA GEOMETRY RELAXATION STEP
------------------------------------------------------------------------------

Reading the OPT-File                    .... done
Getting information on internals        .... done
Copying old internal coords+grads       .... done
Making the new internal coordinates     .... (new redundants).... done
Validating the new internal coordinates .... (new redundants).... done
Calculating the B-matrix                .... done
Calculating the G,G- and P matrices     .... done
Transforming gradient to internals      .... done
Projecting the internal gradient        .... done
Number of atoms                         ....  13
Number of internal coordinates          ....  48
Current Energy                          ....  -286.454401297 Eh
Current gradient norm                   ....     0.054103304 Eh/bohr
Maximum allowed component of the step   ....  0.300
Current trust radius                    ....  0.300
Evaluating the initial hessian          ....  (Almloef) done
Projecting the Hessian                  .... done
Forming the augmented Hessian           .... done
Diagonalizing the augmented Hessian     .... done
Last element of RFO vector              ....  0.992640292
Lowest eigenvalues of augmented Hessian:
 -0.003123537  0.013020484  0.013251867  0.013267826  0.021390398
Length of the computed step             ....  0.121998037
The final length of the internal step   ....  0.121998037
Converting the step to cartesian space:
 Initial RMS(Int)=    0.0176088998
Transforming coordinates:
 Iter   0:  RMS(Cart)=    0.0346164982 RMS(Int)=    0.0175682436
 Iter   1:  RMS(Cart)=    0.0008717876 RMS(Int)=    0.0006351635
 Iter   2:  RMS(Cart)=    0.0000310421 RMS(Int)=    0.0000227780
 Iter   3:  RMS(Cart)=    0.0000012782 RMS(Int)=    0.0000012537
 Iter   4:  RMS(Cart)=    0.0000000558 RMS(Int)=    0.0000000621
done
Storing new coordinates                 .... done

                                .--------------------.
          ----------------------|Geometry convergence|-------------------------
          Item                value                   Tolerance       Converged
          ---------------------------------------------------------------------
          RMS gradient        0.0053726775            0.0020000000      NO
          MAX gradient        0.0217013171            0.0030000000      NO
          RMS step            0.0176088998            0.0200000000      YES
          MAX step            0.0534845617            0.0300000000      NO
          ........................................................
          Max(Bonds)      0.0178      Max(Angles)    1.26
          Max(Dihed)        3.06      Max(Improp)    0.00
          ---------------------------------------------------------------------

The optimization has not yet converged - more geometry cycles are needed


    ---------------------------------------------------------------------------
                         Redundant Internal Coordinates
                            (Angstroem and degrees)

        Definition                    Value    dE/dq     Step     New-Value
    ----------------------------------------------------------------------------
     1. B(O   2,C   1)                1.2261  0.008382 -0.0043    1.2218   
     2. B(C   3,C   1)                1.4850  0.012851 -0.0153    1.4697   
     3. B(C   4,C   3)                1.4984 -0.005380  0.0067    1.5051   
     4. B(C   5,C   3)                1.3414 -0.021701  0.0153    1.3567   
     5. B(C   5,N   0)                1.3717 -0.011253  0.0099    1.3816   
     6. B(H   6,N   0)                1.0161  0.000081 -0.0001    1.0160   
     7. B(H   7,N   0)                1.0194  0.004650 -0.0058    1.0136   
     8. B(H   8,C   1)                1.1008 -0.011769  0.0178    1.1187   
     9. B(H   9,C   4)                1.0951 -0.004596  0.0068    1.1019   
    10. B(H  10,C   4)                1.0953 -0.004739  0.0070    1.1024   
    11. B(H  11,C   4)                1.0951 -0.004862  0.0072    1.1023   
    12. B(H  12,C   5)                1.0913 -0.004720  0.0069    1.0982   
    13. A(H   6,N   0,H   7)          111.80  0.001727    0.18    111.98   
    14. A(C   5,N   0,H   6)          116.14 -0.003259    0.82    116.95   
    15. A(C   5,N   0,H   7)          113.99 -0.001871    0.60    114.59   
    16. A(O   2,C   1,H   8)          121.03  0.004798   -0.68    120.35   
    17. A(C   3,C   1,H   8)          116.39  0.000466   -0.03    116.36   
    18. A(O   2,C   1,C   3)          122.58 -0.005267    0.71    123.29   
    19. A(C   1,C   3,C   5)          121.24 -0.000184    0.02    121.25   
    20. A(C   1,C   3,C   4)          115.79 -0.001562    0.23    116.02   
    21. A(C   4,C   3,C   5)          122.97  0.001747   -0.24    122.73   
    22. A(C   3,C   4,H  11)          110.53 -0.002287    0.33    110.86   
    23. A(H   9,C   4,H  10)          107.54 -0.001186    0.39    107.94   
    24. A(C   3,C   4,H  10)          111.97  0.002181   -0.21    111.76   
    25. A(C   3,C   4,H   9)          110.52 -0.001519    0.18    110.70   
    26. A(H   9,C   4,H  11)          108.60  0.003944   -1.12    107.48   
    27. A(H  10,C   4,H  11)          107.55 -0.000992    0.40    107.95   
    28. A(N   0,C   5,C   3)          131.04  0.009033   -1.26    129.78   
    29. A(C   3,C   5,H  12)          118.31 -0.001025    0.04    118.35   
    30. A(N   0,C   5,H  12)          110.64 -0.007977    1.18    111.81   
    31. D(C   4,C   3,C   1,O   2)      0.15 -0.000250    0.71      0.85   
    32. D(C   5,C   3,C   1,O   2)   -179.98  0.000023    0.08   -179.91   
    33. D(C   5,C   3,C   1,H   8)      0.74  0.000175   -0.45      0.29   
    34. D(C   4,C   3,C   1,H   8)   -179.14 -0.000098    0.19   -178.95   
    35. D(H  10,C   4,C   3,C   1)    179.98  0.000081   -0.41    179.56   
    36. D(H   9,C   4,C   3,C   5)    119.98 -0.001282    0.71    120.69   
    37. D(H  11,C   4,C   3,C   5)   -119.77  0.001170   -0.36   -120.13   
    38. D(H  11,C   4,C   3,C   1)     60.10  0.001446   -1.00     59.10   
    39. D(H  10,C   4,C   3,C   5)      0.11 -0.000195    0.23      0.34   
    40. D(H   9,C   4,C   3,C   1)    -60.15 -0.001007    0.07    -60.08   
    41. D(H  12,C   5,N   0,H   7)    -24.85 -0.000040   -1.29    -26.14   
    42. D(H  12,C   5,N   0,H   6)   -157.00  0.002719   -3.06   -160.06   
    43. D(C   3,C   5,N   0,H   7)    156.63 -0.001455    0.80    157.43   
    44. D(N   0,C   5,C   3,C   1)      0.12  0.001603   -2.14     -2.02   
    45. D(C   3,C   5,N   0,H   6)     24.48  0.001304   -0.97     23.51   
    46. D(H  12,C   5,C   3,C   4)      1.56  0.000455   -0.61      0.95   
    47. D(H  12,C   5,C   3,C   1)   -178.30  0.000166    0.07   -178.23   
    48. D(N   0,C   5,C   3,C   4)    179.99  0.001892   -2.82    177.17   
    ----------------------------------------------------------------------------

         *************************************************************
         *                GEOMETRY OPTIMIZATION CYCLE   2            *
         *************************************************************
---------------------------------
CARTESIAN COORDINATES (ANGSTROEM)
---------------------------------
  N     -3.974750    1.679729   -0.011091
  C     -2.436616   -0.906878   -0.044028
  O     -1.842867   -1.974654   -0.042996
  C     -3.902016   -0.798624   -0.014471
  C     -4.659122   -2.098375    0.038231
  C     -4.518796    0.409814   -0.018694
  H     -3.026406    1.776396   -0.362643
  H     -4.587580    2.403037   -0.369711
  H     -1.867785    0.056130   -0.064820
  H     -4.430767   -2.718229   -0.843691
  H     -5.749059   -1.935561    0.065728
  H     -4.379825   -2.679232    0.932447
  H     -5.615412    0.435547    0.033939

----------------------------
CARTESIAN COORDINATES (A.U.)
----------------------------
  NO LB      ZA    FRAG     MASS         X           Y           Z
   0 N     7.0000    0    14.007   -7.511188    3.174228   -0.020960
   1 C     6.0000    0    12.011   -4.604537   -1.713751   -0.083202
   2 O     8.0000    0    15.999   -3.482513   -3.731556   -0.081251
   3 C     6.0000    0    12.011   -7.373741   -1.509180   -0.027345
   4 C     6.0000    0    12.011   -8.804464   -3.965354    0.072247
   5 C     6.0000    0    12.011   -8.539287    0.774436   -0.035326
   6 H     1.0000    0     1.008   -5.719078    3.356901   -0.685297
   7 H     1.0000    0     1.008   -8.669270    4.541083   -0.698653
   8 H     1.0000    0     1.008   -3.529602    0.106070   -0.122492
   9 H     1.0000    0     1.008   -8.372936   -5.136708   -1.594344
  10 H     1.0000    0     1.008  -10.864146   -3.657680    0.124208
  11 H     1.0000    0     1.008   -8.276669   -5.063015    1.762069
  12 H     1.0000    0     1.008  -10.611591    0.823064    0.064136

--------------------------------
INTERNAL COORDINATES (ANGSTROEM)
--------------------------------
 N      0   0   0     0.000000000000     0.00000000     0.00000000
 C      1   0   0     3.009563629656     0.00000000     0.00000000
 O      2   1   0     1.221755378821   178.20675738     0.00000000
 C      2   1   3     1.469689975362    55.03218728    21.15479778
 C      4   2   1     1.505104969165   116.01796863   181.62988584
 C      4   2   1     1.356745088012   121.25309890     0.86744622
 H      1   2   3     1.016016163171    66.48083081   179.75465277
 H      1   2   3     1.013580102895   156.70276046   270.94135684
 H      2   1   8     1.118653306549    61.32811860   111.50694379
 H      5   4   2     1.101885350694   110.70245682   299.91529392
 H      5   4   2     1.102373115723   111.75761071   179.56465138
 H      5   4   2     1.102280847081   110.85542456    59.09638098
 H      6   4   2     1.098179834429   118.33832465   181.76149921

---------------------------
INTERNAL COORDINATES (A.U.)
---------------------------
 N      0   0   0     0.000000000000     0.00000000     0.00000000
 C      1   0   0     5.687251042659     0.00000000     0.00000000
 O      2   1   0     2.308783068617   178.20675738     0.00000000
 C      2   1   3     2.777311555204    55.03218728    21.15479778
 C      4   2   1     2.844236194526   116.01796863   181.62988584
 C      4   2   1     2.563876649886   121.25309890     0.86744622
 H      1   2   3     1.919992296030    66.48083081   179.75465277
 H      1   2   3     1.915388809264   156.70276046   270.94135684
 H      2   1   8     2.113948388184    61.32811860   111.50694379
 H      5   4   2     2.082261543792   110.70245682   299.91529392
 H      5   4   2     2.083183286113   111.75761071   179.56465138
 H      5   4   2     2.083008923649   110.85542456    59.09638098
 H      6   4   2     2.075259132866   118.33832465   181.76149921



           ************************************************************
           *        Program running with 6 parallel MPI-processes     *
           *              working on a common directory               *
           ************************************************************
 One Electron integrals                  ... done
 Pre-screening matrix                    ... done


           ************************************************************
           *        Program running with 6 parallel MPI-processes     *
           *              working on a common directory               *
           ************************************************************

Diagonalization of the overlap matrix:
Smallest eigenvalue                        ... 1.388e-03
Time for diagonalization                   ...    0.004 sec
Threshold for overlap eigenvalues          ... 1.000e-08
Number of eigenvalues below threshold      ... 0
Time for construction of square roots      ...    0.001 sec
Total time needed                          ...    0.005 sec

-------------------
DFT GRID GENERATION
-------------------

General Integration Accuracy     IntAcc      ...  4.340
Radial Grid Type                 RadialGrid  ... Gauss-Chebyshev
Angular Grid (max. acc.)         AngularGrid ... Lebedev-110
Angular grid pruning method      GridPruning ... 3 (G Style)
Weight generation scheme         WeightScheme... Becke
Basis function cutoff            BFCut       ...    1.0000e-11
Integration weight cutoff        WCut        ...    1.0000e-14
Grids for H and He will be reduced by one unit

# of grid points (after initial pruning)     ...  15600 (   0.0 sec)
# of grid points (after weights+screening)   ...  14675 (   0.0 sec)
nearest neighbour list constructed           ...    0.0 sec
Grid point re-assignment to atoms done       ...    0.0 sec
Grid point division into batches done        ...    0.0 sec
Reduced shell lists constructed in    0.0 sec

Total number of grid points                  ...    14675
Total number of batches                      ...      235
Average number of points per batch           ...       62
Average number of grid points per atom       ...     1129
Average number of shells per batch           ...    46.98 (82.41%)
Average number of basis functions per batch  ...    96.05 (80.71%)
Average number of large shells per batch     ...    36.85 (78.45%)
Average number of large basis fcns per batch ...    75.00 (78.09%)
Maximum spatial batch extension              ...  16.11, 15.26, 25.65 au
Average spatial batch extension              ...   0.59,  0.62,  0.77 au

Time for grid setup =    0.065 sec

--------------------
COSX GRID GENERATION
--------------------

General Integration Accuracy     IntAcc      ...  3.340
Radial Grid Type                 RadialGrid  ... Gauss-Chebyshev
Angular Grid (max. acc.)         AngularGrid ... Lebedev-50
Angular grid pruning method      GridPruning ... 3 (G Style)
Weight generation scheme         WeightScheme... Becke
Basis function cutoff            BFCut       ...    1.0000e-11
Integration weight cutoff        WCut        ...    1.0000e-14
Grids for H and He will be reduced by one unit

# of grid points (after initial pruning)     ...   5706 (   0.0 sec)
# of grid points (after weights+screening)   ...   5400 (   0.0 sec)
nearest neighbour list constructed           ...    0.0 sec
Grid point re-assignment to atoms done       ...    0.0 sec
Grid point division into batches done        ...    0.0 sec
Reduced shell lists constructed in    0.0 sec

Total number of grid points                  ...     5400
Total number of batches                      ...       92
Average number of points per batch           ...       58
Average number of grid points per atom       ...      415
Average number of shells per batch           ...    48.88 (85.76%)
Average number of basis functions per batch  ...   100.29 (84.28%)
Average number of large shells per batch     ...    39.94 (81.71%)
Average number of large basis fcns per batch ...    82.53 (82.29%)
Maximum spatial batch extension              ...  11.28, 10.13, 12.77 au
Average spatial batch extension              ...   0.52,  0.54,  0.71 au

Overlap Fitting                  UseSFitting ... on
Constructing numerical overlap ... done (      0.0 sec)
Inverting numerical overlap    ... done (      0.0 sec)
Obtaining analytic overlap     ... done (      0.0 sec)
Final contraction and storage  ... done (      0.0 sec)


General Integration Accuracy     IntAcc      ...  3.670
Radial Grid Type                 RadialGrid  ... Gauss-Chebyshev
Angular Grid (max. acc.)         AngularGrid ... Lebedev-50
Angular grid pruning method      GridPruning ... 3 (G Style)
Weight generation scheme         WeightScheme... Becke
Basis function cutoff            BFCut       ...    1.0000e-11
Integration weight cutoff        WCut        ...    1.0000e-14
Grids for H and He will be reduced by one unit

# of grid points (after initial pruning)     ...   7312 (   0.0 sec)
# of grid points (after weights+screening)   ...   6899 (   0.0 sec)
nearest neighbour list constructed           ...    0.0 sec
Grid point re-assignment to atoms done       ...    0.0 sec
Grid point division into batches done        ...    0.0 sec
Reduced shell lists constructed in    0.0 sec

Total number of grid points                  ...     6899
Total number of batches                      ...      113
Average number of points per batch           ...       61
Average number of grid points per atom       ...      531
Average number of shells per batch           ...    48.65 (85.35%)
Average number of basis functions per batch  ...    99.55 (83.66%)
Average number of large shells per batch     ...    39.60 (81.40%)
Average number of large basis fcns per batch ...    81.60 (81.97%)
Maximum spatial batch extension              ...  16.32, 13.86, 25.19 au
Average spatial batch extension              ...   0.58,  0.55,  0.80 au

Overlap Fitting                  UseSFitting ... on
Constructing numerical overlap ... done (      0.0 sec)
Inverting numerical overlap    ... done (      0.0 sec)
Obtaining analytic overlap     ... done (      0.0 sec)
Final contraction and storage  ... done (      0.0 sec)


General Integration Accuracy     IntAcc      ...  4.010
Radial Grid Type                 RadialGrid  ... Gauss-Chebyshev
Angular Grid (max. acc.)         AngularGrid ... Lebedev-110
Angular grid pruning method      GridPruning ... 3 (G Style)
Weight generation scheme         WeightScheme... Becke
Basis function cutoff            BFCut       ...    1.0000e-11
Integration weight cutoff        WCut        ...    1.0000e-14
Grids for H and He will be reduced by one unit

# of grid points (after initial pruning)     ...  13438 (   0.0 sec)
# of grid points (after weights+screening)   ...  12656 (   0.0 sec)
nearest neighbour list constructed           ...    0.0 sec
Grid point re-assignment to atoms done       ...    0.0 sec
Grid point division into batches done        ...    0.0 sec
Reduced shell lists constructed in    0.0 sec

Total number of grid points                  ...    12656
Total number of batches                      ...      205
Average number of points per batch           ...       61
Average number of grid points per atom       ...      974
Average number of shells per batch           ...    47.81 (83.87%)
Average number of basis functions per batch  ...    97.75 (82.14%)
Average number of large shells per batch     ...    37.72 (78.91%)
Average number of large basis fcns per batch ...    77.06 (78.83%)
Maximum spatial batch extension              ...  17.01, 16.73, 26.98 au
Average spatial batch extension              ...   0.59,  0.63,  0.78 au

Overlap Fitting                  UseSFitting ... on
Constructing numerical overlap ... done (      0.0 sec)
Inverting numerical overlap    ... done (      0.0 sec)
Obtaining analytic overlap     ... done (      0.0 sec)
Final contraction and storage  ... done (      0.0 sec)

Time for X-Grid setup             =    0.236 sec
--------------
SCF ITERATIONS
--------------
ITER       Energy         Delta-E        Max-DP      RMS-DP      [F,P]     Damp
               ***  Starting incremental Fock matrix formation  ***
                      *** Initiating the SOSCF procedure ***
                      *** Re-Reading the Fockian *** 
                      *** Removing any level shift *** 
ITER      Energy       Delta-E        Grad      Rot      Max-DP    RMS-DP
  0   -286.43953970 -286.4395396990  0.002983  0.002983  0.018239  0.000565
               *** Restarting incremental Fock matrix formation ***
  1   -286.44074186  -0.0012021614  0.001015  0.002916  0.005347  0.000230
  2   -286.44082907  -0.0000872061  0.001654  0.006495  0.005041  0.000142
  3   -286.44083233  -0.0000032631  0.001542  0.003519  0.002016  0.000088
  4   -286.44085649  -0.0000241559  0.000349  0.000952  0.001194  0.000041
  5   -286.44085490   0.0000015838  0.000531  0.000632  0.000807  0.000028
  6   -286.44085870  -0.0000038014  0.000092  0.000276  0.000374  0.000013
  7   -286.44085839   0.0000003089  0.000146  0.000177  0.000233  0.000008
  8   -286.44085884  -0.0000004426  0.000009  0.000018  0.000045  0.000001
  9   -286.44085883   0.0000000064  0.000011  0.000010  0.000026  0.000001
                  ***Gradient check signals convergence***
              ***Rediagonalizing the Fockian in SOSCF/NRSCF***

               *****************************************************
               *                     SUCCESS                       *
               *           SCF CONVERGED AFTER  10 CYCLES          *
               *****************************************************

Setting up the final grid:

General Integration Accuracy     IntAcc      ...  4.670
Radial Grid Type                 RadialGrid  ... Gauss-Chebyshev
Angular Grid (max. acc.)         AngularGrid ... Lebedev-302
Angular grid pruning method      GridPruning ... 3 (G Style)
Weight generation scheme         WeightScheme... Becke
Basis function cutoff            BFCut       ...    1.0000e-11
Integration weight cutoff        WCut        ...    1.0000e-14
Grids for H and He will be reduced by one unit

# of grid points (after initial pruning)     ...  61030 (   0.0 sec)
# of grid points (after weights+screening)   ...  56683 (   0.0 sec)
nearest neighbour list constructed           ...    0.0 sec
Grid point re-assignment to atoms done       ...    0.0 sec
Grid point division into batches done        ...    0.2 sec
Reduced shell lists constructed in    0.3 sec

Total number of grid points                  ...    56683
Total number of batches                      ...      893
Average number of points per batch           ...       63
Average number of grid points per atom       ...     4360
Average number of shells per batch           ...    43.08 (75.58%)
Average number of basis functions per batch  ...    87.88 (73.85%)
Average number of large shells per batch     ...    33.34 (77.39%)
Average number of large basis fcns per batch ...    68.02 (77.40%)
Maximum spatial batch extension              ...  14.84, 14.55, 20.46 au
Average spatial batch extension              ...   0.41,  0.40,  0.47 au

Final grid set up in    0.4 sec
Final integration                            ... done (   0.2 sec)
Change in XC energy                          ...     0.001090628
Integrated number of electrons               ...    45.999974902
Previous integrated no of electrons          ...    46.008863708
Old exchange energy                            =     -7.605502990 Eh
New exchange energy                            =     -7.605188417 Eh
Exchange energy change after final integration =      0.000314572 Eh
Total energy after final integration           =   -286.439453638 Eh
Final COS-X integration done in                =     1.020 sec
Total Energy       :         -286.43945364 Eh           -7794.41379 eV
  Last Energy change         ...   -7.8134e-09  Tolerance :   1.0000e-08
  Last MAX-Density change    ...    8.4549e-13  Tolerance :   1.0000e-07
             **** THE GBW FILE WAS UPDATED (g8raf/frag_33_c00001.gbw) ****
             **** DENSITY FILE WAS UPDATED (g8raf/frag_33_c00001.scfp.tmp) ****
             **** ENERGY FILE WAS UPDATED (g8raf/frag_33_c00001.en.tmp) ****
Total SCF time: 0 days 0 hours 0 min 10 sec 


-------------------------------------------------------------------------------
                          DFT DISPERSION CORRECTION                            
                                                                               
                              DFTD3 V3.1  Rev 1                                
                          USING Becke-Johnson damping                          
-------------------------------------------------------------------------------
-------------------------   ----------------
Dispersion correction           -0.016891562
-------------------------   ----------------


-------------------------   --------------------
FINAL SINGLE POINT ENERGY      -286.456345200588
-------------------------   --------------------



           ************************************************************
           *        Program running with 6 parallel MPI-processes     *
           *              working on a common directory               *
           ************************************************************
------------------------------------------------------------------------------
                         ORCA SCF GRADIENT CALCULATION
------------------------------------------------------------------------------

Gradient of the Kohn-Sham DFT energy:
Kohn-Sham wavefunction type      ... RKS
Hartree-Fock exchange scaling    ...    0.200
Number of operators              ...    1
Number of atoms                  ...   13
Basis set dimensions             ...  119
Integral neglect threshold       ... 2.5e-11
Integral primitive cutoff        ... 2.5e-12

Nuclear repulsion gradient       ... done
One Electron Gradient            ... done
Pre-screening matrix             ... done
RI-J gradient                    ... done
COSX-gradient                    ... done
Exchange-correlation gradient    ... done
Dispersion correction            ... done

------------------
CARTESIAN GRADIENT
------------------

   1   N   :   -0.002141954    0.003001538    0.001765238
   2   C   :    0.009414047    0.004279901    0.000713619
   3   O   :   -0.001794551   -0.002564942   -0.000286032
   4   C   :   -0.012646306    0.002434614   -0.000096110
   5   C   :    0.003542648   -0.001901450   -0.000188101
   6   C   :    0.009075724   -0.006900710   -0.000649633
   7   H   :    0.000319395   -0.000423576   -0.001604560
   8   H   :    0.000227100   -0.000817811   -0.000321558
   9   H   :   -0.001958476   -0.001250912   -0.000016314
  10   H   :   -0.001057120    0.001578199   -0.000961173
  11   H   :   -0.000281015   -0.000683059    0.000030736
  12   H   :   -0.001094529    0.001412847    0.001021716
  13   H   :   -0.000546166    0.001636914   -0.000033671

Difference to translation invariance:
           :    0.0010587979   -0.0001984482   -0.0006258439

Norm of the cartesian gradient     ...    0.0216309729
RMS gradient                       ...    0.0034637278
MAX gradient                       ...    0.0126463056

-------
TIMINGS
-------

Total SCF gradient time            ...        2.591 sec

One electron gradient       ....       0.042 sec  (  1.6%)
Prescreening matrices       ....       0.048 sec  (  1.9%)
RI-J Coulomb gradient       ....       0.323 sec  ( 12.5%)
COSX gradient               ....       1.043 sec  ( 40.3%)
XC gradient                 ....       0.670 sec  ( 25.8%)
------------------------------------------------------------------------------
                         ORCA GEOMETRY RELAXATION STEP
------------------------------------------------------------------------------

Reading the OPT-File                    .... done
Getting information on internals        .... done
Copying old internal coords+grads       .... done
Making the new internal coordinates     .... (new redundants).... done
Validating the new internal coordinates .... (new redundants).... done
Calculating the B-matrix                .... done
Calculating the G,G- and P matrices     .... done
Transforming gradient to internals      .... done
Projecting the internal gradient        .... done
Number of atoms                         ....  13
Number of internal coordinates          ....  48
Current Energy                          ....  -286.456345201 Eh
Current gradient norm                   ....     0.021630973 Eh/bohr
Maximum allowed component of the step   ....  0.300
Current trust radius                    ....  0.300
Updating the Hessian (BFGS)             .... done
Forming the augmented Hessian           .... done
Diagonalizing the augmented Hessian     .... done
Last element of RFO vector              ....  0.995080183
Lowest eigenvalues of augmented Hessian:
 -0.000733087  0.013021778  0.013255860  0.013344353  0.021440129
Length of the computed step             ....  0.099562684
The final length of the internal step   ....  0.099562684
Converting the step to cartesian space:
 Initial RMS(Int)=    0.0143706356
Transforming coordinates:
 Iter   0:  RMS(Cart)=    0.0257036208 RMS(Int)=    0.9021457164
 Iter   1:  RMS(Cart)=    0.0004859031 RMS(Int)=    0.0004216921
 Iter   2:  RMS(Cart)=    0.0000164129 RMS(Int)=    0.0000136623
 Iter   3:  RMS(Cart)=    0.0000006757 RMS(Int)=    0.0000006886
 Iter   4:  RMS(Cart)=    0.0000000280 RMS(Int)=    0.0000000263
done
Storing new coordinates                 .... done

                                .--------------------.
          ----------------------|Geometry convergence|-------------------------
          Item                value                   Tolerance       Converged
          ---------------------------------------------------------------------
          Energy change      -0.0019439035            0.0001000000      NO
          RMS gradient        0.0017802831            0.0020000000      YES
          MAX gradient        0.0058297631            0.0030000000      NO
          RMS step            0.0143706356            0.0200000000      YES
          MAX step            0.0417679743            0.0300000000      NO
          ........................................................
          Max(Bonds)      0.0109      Max(Angles)    1.01
          Max(Dihed)        2.39      Max(Improp)    0.00
          ---------------------------------------------------------------------

The optimization has not yet converged - more geometry cycles are needed


    ---------------------------------------------------------------------------
                         Redundant Internal Coordinates
                            (Angstroem and degrees)

        Definition                    Value    dE/dq     Step     New-Value
    ----------------------------------------------------------------------------
     1. B(O   2,C   1)                1.2218  0.001232 -0.0014    1.2204   
     2. B(C   3,C   1)                1.4697  0.005425 -0.0109    1.4588   
     3. B(C   4,C   3)                1.5051 -0.000846  0.0022    1.5074   
     4. B(C   5,C   3)                1.3567 -0.005830  0.0075    1.3643   
[...]
Reduced shell lists constructed in    0.0 sec

Total number of grid points                  ...     5395
Total number of batches                      ...       91
Average number of points per batch           ...       59
Average number of grid points per atom       ...      415
Average number of shells per batch           ...    48.29 (84.73%)
Average number of basis functions per batch  ...    99.00 (83.19%)
Average number of large shells per batch     ...    39.35 (81.49%)
Average number of large basis fcns per batch ...    81.00 (81.82%)
Maximum spatial batch extension              ...  15.39, 12.69, 22.94 au
Average spatial batch extension              ...   0.69,  0.66,  0.95 au

Overlap Fitting                  UseSFitting ... on
Constructing numerical overlap ... done (      0.0 sec)
Inverting numerical overlap    ... done (      0.0 sec)
Obtaining analytic overlap     ... done (      0.0 sec)
Final contraction and storage  ... done (      0.0 sec)


General Integration Accuracy     IntAcc      ...  3.670
Radial Grid Type                 RadialGrid  ... Gauss-Chebyshev
Angular Grid (max. acc.)         AngularGrid ... Lebedev-50
Angular grid pruning method      GridPruning ... 3 (G Style)
Weight generation scheme         WeightScheme... Becke
Basis function cutoff            BFCut       ...    1.0000e-11
Integration weight cutoff        WCut        ...    1.0000e-14
Grids for H and He will be reduced by one unit

# of grid points (after initial pruning)     ...   7312 (   0.0 sec)
# of grid points (after weights+screening)   ...   6900 (   0.0 sec)
nearest neighbour list constructed           ...    0.0 sec
Grid point re-assignment to atoms done       ...    0.0 sec
Grid point division into batches done        ...    0.0 sec
Reduced shell lists constructed in    0.0 sec

Total number of grid points                  ...     6900
Total number of batches                      ...      114
Average number of points per batch           ...       60
Average number of grid points per atom       ...      531
Average number of shells per batch           ...    48.15 (84.47%)
Average number of basis functions per batch  ...    98.55 (82.82%)
Average number of large shells per batch     ...    39.00 (81.00%)
Average number of large basis fcns per batch ...    80.40 (81.58%)
Maximum spatial batch extension              ...  15.67, 16.31, 25.11 au
Average spatial batch extension              ...   0.59,  0.66,  0.87 au

Overlap Fitting                  UseSFitting ... on
Constructing numerical overlap ... done (      0.0 sec)
Inverting numerical overlap    ... done (      0.0 sec)
Obtaining analytic overlap     ... done (      0.0 sec)
Final contraction and storage  ... done (      0.0 sec)


General Integration Accuracy     IntAcc      ...  4.010
Radial Grid Type                 RadialGrid  ... Gauss-Chebyshev
Angular Grid (max. acc.)         AngularGrid ... Lebedev-110
Angular grid pruning method      GridPruning ... 3 (G Style)
Weight generation scheme         WeightScheme... Becke
Basis function cutoff            BFCut       ...    1.0000e-11
Integration weight cutoff        WCut        ...    1.0000e-14
Grids for H and He will be reduced by one unit

# of grid points (after initial pruning)     ...  13438 (   0.0 sec)
# of grid points (after weights+screening)   ...  12654 (   0.0 sec)
nearest neighbour list constructed           ...    0.0 sec
Grid point re-assignment to atoms done       ...    0.0 sec
Grid point division into batches done        ...    0.0 sec
Reduced shell lists constructed in    0.0 sec

Total number of grid points                  ...    12654
Total number of batches                      ...      203
Average number of points per batch           ...       62
Average number of grid points per atom       ...      973
Average number of shells per batch           ...    47.71 (83.71%)
Average number of basis functions per batch  ...    97.71 (82.11%)
Average number of large shells per batch     ...    37.63 (78.86%)
Average number of large basis fcns per batch ...    76.66 (78.45%)
Maximum spatial batch extension              ...  15.45, 14.57, 24.28 au
Average spatial batch extension              ...   0.61,  0.59,  0.80 au

Overlap Fitting                  UseSFitting ... on
Constructing numerical overlap ... done (      0.0 sec)
Inverting numerical overlap    ... done (      0.0 sec)
Obtaining analytic overlap     ... done (      0.0 sec)
Final contraction and storage  ... done (      0.0 sec)

Time for X-Grid setup             =    0.244 sec
--------------
SCF ITERATIONS
--------------
ITER       Energy         Delta-E        Max-DP      RMS-DP      [F,P]     Damp
               ***  Starting incremental Fock matrix formation  ***
                      *** Initiating the SOSCF procedure ***
                      *** Re-Reading the Fockian *** 
                      *** Removing any level shift *** 
ITER      Energy       Delta-E        Grad      Rot      Max-DP    RMS-DP
  0   -286.44125250 -286.4412525019  0.000767  0.000767  0.003873  0.000089
               *** Restarting incremental Fock matrix formation ***
  1   -286.44128633  -0.0000338258  0.000246  0.000623  0.001113  0.000036
  2   -286.44128966  -0.0000033295  0.000159  0.000723  0.000574  0.000024
  3   -286.44128895   0.0000007121  0.000305  0.000467  0.000425  0.000016
  4   -286.44128995  -0.0000010070  0.000021  0.000059  0.000087  0.000003
  5   -286.44128994   0.0000000168  0.000034  0.000037  0.000056  0.000002
  6   -286.44128996  -0.0000000259  0.000006  0.000017  0.000031  0.000001
  7   -286.44128996   0.0000000052  0.000009  0.000011  0.000019  0.000000
                  ***Gradient check signals convergence***
              ***Rediagonalizing the Fockian in SOSCF/NRSCF***

               *****************************************************
               *                     SUCCESS                       *
               *           SCF CONVERGED AFTER   8 CYCLES          *
               *****************************************************

Setting up the final grid:

General Integration Accuracy     IntAcc      ...  4.670
Radial Grid Type                 RadialGrid  ... Gauss-Chebyshev
Angular Grid (max. acc.)         AngularGrid ... Lebedev-302
Angular grid pruning method      GridPruning ... 3 (G Style)
Weight generation scheme         WeightScheme... Becke
Basis function cutoff            BFCut       ...    1.0000e-11
Integration weight cutoff        WCut        ...    1.0000e-14
Grids for H and He will be reduced by one unit

# of grid points (after initial pruning)     ...  61030 (   0.0 sec)
# of grid points (after weights+screening)   ...  56671 (   0.0 sec)
nearest neighbour list constructed           ...    0.0 sec
Grid point re-assignment to atoms done       ...    0.0 sec
Grid point division into batches done        ...    0.2 sec
Reduced shell lists constructed in    0.2 sec

Total number of grid points                  ...    56671
Total number of batches                      ...      890
Average number of points per batch           ...       63
Average number of grid points per atom       ...     4359
Average number of shells per batch           ...    43.17 (75.73%)
Average number of basis functions per batch  ...    88.18 (74.10%)
Average number of large shells per batch     ...    33.41 (77.39%)
Average number of large basis fcns per batch ...    68.06 (77.18%)
Maximum spatial batch extension              ...  14.26, 14.55, 20.11 au
Average spatial batch extension              ...   0.41,  0.40,  0.46 au

Final grid set up in    0.4 sec
Final integration                            ... done (   0.2 sec)
Change in XC energy                          ...     0.000980587
Integrated number of electrons               ...    45.999965318
Previous integrated no of electrons          ...    46.008871576
Old exchange energy                            =     -7.605217321 Eh
New exchange energy                            =     -7.604918689 Eh
Exchange energy change after final integration =      0.000298633 Eh
Total energy after final integration           =   -286.440010743 Eh
Final COS-X integration done in                =     0.961 sec

----------------
TOTAL SCF ENERGY
----------------

Total Energy       :         -286.44001074 Eh           -7794.42895 eV

Components:
Nuclear Repulsion  :          222.15607215 Eh            6045.17405 eV
Electronic Energy  :         -508.59608289 Eh          -13839.60301 eV
One Electron Energy:         -827.99678291 Eh          -22530.93791 eV
Two Electron Energy:          319.40070002 Eh            8691.33491 eV

Virial components:
Potential Energy   :         -571.03909825 Eh          -15538.76384 eV
Kinetic Energy     :          284.59908751 Eh            7744.33489 eV
Virial Ratio       :            2.00646848


DFT components:
N(Alpha)           :       22.999982659244 electrons
N(Beta)            :       22.999982659244 electrons
N(Total)           :       45.999965318488 electrons
E(X)               :      -30.219902324464 Eh       
E(C)               :       -1.818688741689 Eh       
E(XC)              :      -32.038591066153 Eh       

---------------
SCF CONVERGENCE
---------------

  Last Energy change         ...   -6.5563e-09  Tolerance :   1.0000e-08
  Last MAX-Density change    ...    2.9988e-15  Tolerance :   1.0000e-07
  Last RMS-Density change    ...    7.8056e-17  Tolerance :   5.0000e-09
  Last Orbital Gradient      ...    5.2740e-07  Tolerance :   1.0000e-05
  Last Orbital Rotation      ...    9.2923e-07  Tolerance :   1.0000e-05

             **** THE GBW FILE WAS UPDATED (g8raf/frag_33_c00001.gbw) ****
             **** DENSITY FILE WAS UPDATED (g8raf/frag_33_c00001.scfp.tmp) ****
             **** ENERGY FILE WAS UPDATED (g8raf/frag_33_c00001.en.tmp) ****
----------------
ORBITAL ENERGIES
----------------

  NO   OCC          E(Eh)            E(eV) 
   0   2.0000     -19.110752      -520.0300 
   1   2.0000     -14.362814      -390.8320 
   2   2.0000     -10.251254      -278.9508 
   3   2.0000     -10.244189      -278.7585 
   4   2.0000     -10.179470      -276.9975 
   5   2.0000     -10.176406      -276.9141 
   6   2.0000      -1.015992       -27.6465 
   7   2.0000      -0.934579       -25.4312 
   8   2.0000      -0.786833       -21.4108 
   9   2.0000      -0.676113       -18.3980 
  10   2.0000      -0.639806       -17.4100 
  11   2.0000      -0.543856       -14.7991 
  12   2.0000      -0.530636       -14.4393 
  13   2.0000      -0.499051       -13.5799 
  14   2.0000      -0.432186       -11.7604 
  15   2.0000      -0.413312       -11.2468 
  16   2.0000      -0.400731       -10.9044 
  17   2.0000      -0.378081       -10.2881 
  18   2.0000      -0.370444       -10.0803 
  19   2.0000      -0.360467        -9.8088 
  20   2.0000      -0.349294        -9.5048 
  21   2.0000      -0.233111        -6.3433 
  22   2.0000      -0.217218        -5.9108 
  23   0.0000      -0.035569        -0.9679 
  24   0.0000       0.035477         0.9654 
  25   0.0000       0.063079         1.7165 
  26   0.0000       0.085050         2.3143 
  27   0.0000       0.090663         2.4671 
  28   0.0000       0.118219         3.2169 
  29   0.0000       0.156423         4.2565 
  30   0.0000       0.162761         4.4289 
  31   0.0000       0.170084         4.6282 
  32   0.0000       0.231062         6.2875 
  33   0.0000       0.263528         7.1710 
  34   0.0000       0.282907         7.6983 
  35   0.0000       0.351270         9.5586 
  36   0.0000       0.382273        10.4022 
  37   0.0000       0.428786        11.6679 
  38   0.0000       0.452073        12.3015 
  39   0.0000       0.463884        12.6229 
  40   0.0000       0.482537        13.1305 
  41   0.0000       0.492767        13.4089 
  42   0.0000       0.532770        14.4974 
  43   0.0000       0.543351        14.7853 
  44   0.0000       0.550368        14.9763 
  45   0.0000       0.579774        15.7764 
  46   0.0000       0.619527        16.8582 
  47   0.0000       0.641632        17.4597 
  48   0.0000       0.652986        17.7686 
  49   0.0000       0.657328        17.8868 
  50   0.0000       0.660189        17.9647 
  51   0.0000       0.677721        18.4417 
  52   0.0000       0.693000        18.8575 
  53   0.0000       0.702558        19.1176 
  54   0.0000       0.753759        20.5108 
  55   0.0000       0.767759        20.8918 
  56   0.0000       0.818656        22.2768 
  57   0.0000       0.855027        23.2665 
  58   0.0000       0.866110        23.5680 
  59   0.0000       0.943050        25.6617 
  60   0.0000       0.949090        25.8260 
  61   0.0000       0.967186        26.3185 
  62   0.0000       0.989785        26.9334 
  63   0.0000       1.033838        28.1322 
  64   0.0000       1.066787        29.0287 
  65   0.0000       1.080602        29.4047 
  66   0.0000       1.100283        29.9402 
  67   0.0000       1.168286        31.7907 
  68   0.0000       1.177879        32.0517 
  69   0.0000       1.218121        33.1467 
  70   0.0000       1.266344        34.4590 
  71   0.0000       1.320126        35.9224 
  72   0.0000       1.335424        36.3387 
  73   0.0000       1.407703        38.3055 
  74   0.0000       1.430907        38.9370 
  75   0.0000       1.440655        39.2022 
  76   0.0000       1.519520        41.3482 
  77   0.0000       1.536718        41.8162 
  78   0.0000       1.563171        42.5361 
  79   0.0000       1.567706        42.6595 
  80   0.0000       1.580407        43.0051 
  81   0.0000       1.606584        43.7174 
  82   0.0000       1.641195        44.6592 
  83   0.0000       1.664090        45.2822 
  84   0.0000       1.688722        45.9525 
  85   0.0000       1.703146        46.3450 
  86   0.0000       1.725582        46.9555 
  87   0.0000       1.756806        47.8051 
  88   0.0000       1.777341        48.3639 
  89   0.0000       1.817984        49.4699 
  90   0.0000       1.823294        49.6143 
  91   0.0000       1.872264        50.9469 
  92   0.0000       1.892418        51.4953 
  93   0.0000       1.928189        52.4687 
  94   0.0000       1.939224        52.7690 
  95   0.0000       2.023825        55.0711 
  96   0.0000       2.038078        55.4589 
  97   0.0000       2.075920        56.4886 
  98   0.0000       2.100148        57.1479 
  99   0.0000       2.132228        58.0209 
 100   0.0000       2.205113        60.0042 
 101   0.0000       2.261793        61.5465 
 102   0.0000       2.326933        63.3191 
 103   0.0000       2.362879        64.2972 
 104   0.0000       2.415921        65.7406 
 105   0.0000       2.441022        66.4236 
 106   0.0000       2.454175        66.7815 
 107   0.0000       2.519847        68.5685 
 108   0.0000       2.551411        69.4274 
 109   0.0000       2.608497        70.9808 
 110   0.0000       2.700056        73.4723 
 111   0.0000       2.718459        73.9730 
 112   0.0000       2.725478        74.1640 
 113   0.0000       2.840411        77.2915 
 114   0.0000       2.966441        80.7210 
 115   0.0000       3.084176        83.9247 
 116   0.0000       3.173795        86.3633 
 117   0.0000       3.423906        93.1692 
 118   0.0000       3.478429        94.6529 
-------
TIMINGS
-------

Total SCF time: 0 days 0 hours 0 min 8 sec 

Total time                  ....       8.317 sec
Sum of individual times     ....       8.237 sec  ( 99.0%)

Fock matrix formation       ....       7.405 sec  ( 89.0%)
  Split-RI-J                ....       1.648 sec  ( 22.2% of F)
  Chain of spheres X        ....       5.099 sec  ( 68.9% of F)
  COS-X 1 center corr.      ....       0.000 sec  (  0.0% of F)
  XC integration            ....       0.625 sec  (  8.4% of F)
    Basis function eval.    ....       0.214 sec  ( 34.1% of XC)
    Density eval.           ....       0.086 sec  ( 13.7% of XC)
    XC-Functional eval.     ....       0.029 sec  (  4.6% of XC)
    XC-Potential eval.      ....       0.168 sec  ( 26.8% of XC)
Diagonalization             ....       0.003 sec  (  0.0%)
Density matrix formation    ....       0.019 sec  (  0.2%)
Population analysis         ....       0.000 sec  (  0.0%)
Initial guess               ....       0.004 sec  (  0.0%)
Orbital Transformation      ....       0.000 sec  (  0.0%)
Orbital Orthonormalization  ....       0.002 sec  (  0.0%)
DIIS solution               ....       0.000 sec  (  0.0%)
SOSCF solution              ....       0.092 sec  (  1.1%)
Grid generation             ....       0.715 sec  (  8.6%)


-------------------------------------------------------------------------------
                          DFT DISPERSION CORRECTION                            
                                                                               
                              DFTD3 V3.1  Rev 1                                
                          USING Becke-Johnson damping                          
-------------------------------------------------------------------------------
The B3LYP functional is recognized
Active option DFTDOPT                   ...         4   

molecular C6(AA) [au] = 1531.958875 


            DFT-D V3
 parameters
 s6 scaling factor         :     1.0000 
 a1 scaling factor         :     0.3981 
 s8 scaling factor         :     1.9889 
 a2 scaling factor         :     4.4211 
 ad hoc parameters k1-k3   :    16.0000     1.3333    -4.0000 

 Edisp/kcal,au: -10.607392136908  -0.016903953556 
 E6   /kcal   :  -5.103325553 
 E8   /kcal   :  -5.504066584 
 % E8         :  51.888970568 

-------------------------   ----------------
Dispersion correction           -0.016903954
-------------------------   ----------------


-------------------------   --------------------
FINAL SINGLE POINT ENERGY      -286.456914697011
-------------------------   --------------------

                                *** OPTIMIZATION RUN DONE ***

                            ***************************************
                            *     ORCA property calculations      *
                            ***************************************

                                    ---------------------
                                    Active property flags
                                    ---------------------
   (+) Dipole Moment


------------------------------------------------------------------------------
                       ORCA ELECTRIC PROPERTIES CALCULATION
------------------------------------------------------------------------------

Dipole Moment Calculation                       ... on
Quadrupole Moment Calculation                   ... off
Polarizability Calculation                      ... off
GBWName                                         ... g8raf/frag_33_c00001.gbw
Electron density file                           ... g8raf/frag_33_c00001.scfp.tmp
The origin for moment calculation is the CENTER OF MASS  = (-6.698132, -1.139749 -0.043014)

-------------
DIPOLE MOMENT
-------------
                                X             Y             Z
Electronic contribution:      3.50816       0.17521       0.05607
Nuclear contribution   :     -4.50076       1.44399      -0.41106
                        -----------------------------------------
Total Dipole Moment    :     -0.99260       1.61920      -0.35499
                        -----------------------------------------
Magnitude (a.u.)       :      1.93212
Magnitude (Debye)      :      4.91105


Timings for individual modules:

Sum of individual times         ...       87.364 sec (=   1.456 min)
GTO integral calculation        ...        5.548 sec (=   0.092 min)   6.3 %
SCF iterations                  ...       65.868 sec (=   1.098 min)  75.4 %
SCF Gradient evaluation         ...       15.665 sec (=   0.261 min)  17.9 %
Geometry relaxation             ...        0.283 sec (=   0.005 min)   0.3 %
                             ****ORCA TERMINATED NORMALLY****
TOTAL RUN TIME: 0 days 0 hours 1 minutes 28 seconds 864 msec
