
                                 *****************
                                 * O   R   C   A *
                                 *****************

           --- An Ab Initio, DFT and Semiempirical electronic structure package ---

                  #######################################################
                  #                        -***-                        #
                  #  Department of molecular theory and spectroscopy    #
                  #              Directorship: Frank Neese              #
                  # Max Planck Institute for Chemical Energy Conversion #
                  #                  D-45470 Muelheim/Ruhr              #
                  #                       Germany                       #
                  #                                                     #
                  #                  All rights reserved                #
                  #                        -***-                        #
                  #######################################################


                         Program Version 4.0.1.2 - RELEASE -


 With contributions from (in alphabetic order):
   Daniel Aravena         : Magnetic Properties
   Michael Atanasov       : Ab Initio Ligand Field Theory
   Ute Becker             : Parallelization
   Martin Brehm           : Molecular dynamics
   Dmytro Bykov           : SCF Hessian
   Vijay G. Chilkuri      : MRCI spin determinant printing
   Dipayan Datta          : RHF DLPNO-CCSD density
   Achintya Kumar Dutta   : EOM-CC, STEOM-CC
   Dmitry Ganyushin       : Spin-Orbit,Spin-Spin,Magnetic field MRCI
   Yang Guo               : DLPNO-NEVPT2, CIM, IAO-localization
   Andreas Hansen         : Spin unrestricted coupled pair/coupled cluster methods
   Lee Huntington         : MR-EOM, pCC
   Robert Izsak           : Overlap fitted RIJCOSX, COSX-SCS-MP3, EOM
   Christian Kollmar      : KDIIS, OOCD, Brueckner-CCSD(T), CCSD density
   Simone Kossmann        : Meta GGA functionals, TD-DFT gradient, OOMP2, MP2 Hessian
   Martin Krupicka        : AUTO-CI
   Dagmar Lenk            : GEPOL surface
   Dimitrios Liakos       : Extrapolation schemes; parallel MDCI
   Dimitrios Manganas     : ROCIS; embedding schemes
   Dimitrios Pantazis     : SARC Basis sets
   Taras Petrenko         : DFT Hessian,TD-DFT gradient, ASA, ECA, R-Raman, ABS, FL, XAS/XES, NRVS
   Peter Pinski           : DLPNO-MP2
   Christoph Reimann      : Effective Core Potentials
   Marius Retegan         : Local ZFS, SOC
   Christoph Riplinger    : Optimizer, TS searches, QM/MM, DLPNO-CCSD(T), (RO)-DLPNO pert. Triples
   Tobias Risthaus        : Range-separated hybrids, TD-DFT gradient, RPA, STAB
   Michael Roemelt        : Restricted open shell CIS
   Masaaki Saitow         : Open-shell DLPNO
   Barbara Sandhoefer     : DKH picture change effects
   Kantharuban Sivalingam : CASSCF convergence, NEVPT2, FIC-MRCI
   Georgi Stoychev        : AutoAux
   Boris Wezisla          : Elementary symmetry handling
   Frank Wennmohs         : Technical directorship


 We gratefully acknowledge several colleagues who have allowed us to
 interface, adapt or use parts of their codes:
   Stefan Grimme, W. Hujo, H. Kruse,             : VdW corrections, initial TS optimization,
                  C. Bannwarth                     DFT functionals, gCP, sTDA/sTD-DF
   Ed Valeev                                     : LibInt (2-el integral package), F12 methods
   Garnet Chan, S. Sharma, J. Yang, R. Olivares  : DMRG
   Ulf Ekstrom                                   : XCFun DFT Library
   Mihaly Kallay                                 : mrcc  (arbitrary order and MRCC methods)
   Andreas Klamt, Michael Diedenhofen            : otool_cosmo (COSMO solvation model)
   Jiri Pittner, Ondrej Demel                    : Mk-CCSD
   Frank Weinhold                                : gennbo (NPA and NBO analysis)
   Christopher J. Cramer and Donald G. Truhlar   : smd solvation model


 Your calculation uses the libint2 library for the computation of 2-el integrals
 For citations please refer to: http://libint.valeyev.net

 This ORCA versions uses:
   CBLAS   interface :  Fast vector & matrix operations
   LAPACKE interface :  Fast linear algebra routines
   SCALAPACK package :  Parallel linear algebra routines


Your calculation utilizes the atom-pairwise dispersion correction
with the Becke-Johnson damping scheme (D3BJ)
Cite in your paper:
S.Grimme, S.Ehrlich, L.Goerigk, J Comput Chem, (2011), 32, 1456–1465 
S.Grimme, J.Antony, S.Ehrlich and H.Krieg, J.Chem.Phys., 132, (2010), 154104 
   

Your calculation utilizes the basis: cc-pVDZ 
       H, B-Ne : Obtained from the ccRepo (grant-hill.group.shef.ac.uk/ccrepo) Feb. 2017
                 T. H. Dunning, Jr., J. Chem. Phys. 90, 1007 (1989)
            He : Obtained from the ccRepo (grant-hill.group.shef.ac.uk/ccrepo) Feb. 2017
                 D. E. Woon, T. H. Dunning, Jr., J. Chem. Phys. 100, 2975 (1994)
  Li-Be, Na-Mg : Obtained from the ccRepo (grant-hill.group.shef.ac.uk/ccrepo) Feb. 2017
                 B. P. Prascher, D. E. Woon, K. A. Peterson, T. H. Dunning, Jr., A. K. Wilson, Theor. Chem. Acc. 128, 69 (2011)
         Al-Ar : Obtained from the ccRepo (grant-hill.group.shef.ac.uk/ccrepo) Feb. 2017
                 D. E. Woon, T. H. Dunning, Jr., J. Chem. Phys. 98, 1358 (1993)
            Ca : Obtained from the Peterson Research Group Website (tyr0.chem.wsu.edu/~kipeters) Feb. 2017
                 J. Koput, K. A. Peterson, J. Phys. Chem. 106, 9595 (2002)
         Sc-Zn : Obtained from the ccRepo (grant-hill.group.shef.ac.uk/ccrepo) Feb. 2017
                 N. B. Balabanov, K. A. Peterson, J. Chem. Phys. 123, 064107 (2005)
                 N. B. Balabanov, K. A. Peterson, J. Chem. Phys. 125, 074110 (2006)
         Ga-Kr : Obtained from the ccRepo (grant-hill.group.shef.ac.uk/ccrepo) Feb. 2017
                 A. K. Wilson, D. E. Woon, K. A. Peterson, T. H. Dunning, Jr., J. Chem. Phys. 110, 7667 (1999)

Your calculation utilizes the auxiliary basis: def2/J
   F. Weigend, Phys. Chem. Chem. Phys. 8, 1057 (2006).

================================================================================
                                        WARNINGS
                       Please study these warnings very carefully!
================================================================================

Warning: TCutStore was < 0. Adjusted to Thresh (uncritical)

WARNING: Geometry Optimization
  ===> : Switching off AutoStart
         For restart on a previous wavefunction, please use MOREAD

INFO   : the flag for use of LIBINT has been found!

================================================================================
                                       INPUT FILE
================================================================================
NAME = AT-v/e/frag_04_c00001.com
|  1> %pal nprocs 6 end
|  2> %maxcore 1000
|  3> ! b3lyp TIGHTSCF nopop D3BJ
|  4> ! cc-pvdz def2/J RIJCOSX
|  5> ! Opt
|  6> 
|  7> %geom
|  8> maxiter 60
|  9> TolE 1e-4
| 10> TolRMSG 2e-3
| 11> TolMaxG 3e-3
| 12> TolRMSD 2e-2
| 13> TolMaxD 3e-2
| 14> end
| 15> 
| 16> *xyz 0 1
| 17> C 1.6373 -0.7241 0.0398
| 18> N 0.9883 -1.8837 -0.1904
| 19> N 1.0628 0.4264 0.0506
| 20> N -1.7593 0.4247 -0.0275
| 21> C -2.4087 -0.7585 0.068
| 22> O -1.8054 -1.8223 0.17
| 23> C -3.8911 -0.7325 0.0454
| 24> C -4.6778 0.3463 -0.0601
| 25> H 2.7212 -0.8434 0.2097
| 26> H 1.3396 -2.7165 0.2641
| 27> H -0.0348 -1.8263 -0.1268
| 28> H 1.7759 1.1442 0.2337
| 29> H -2.201 1.3205 -0.1406
| 30> H -0.7325 0.4182 -0.0255
| 31> H -4.3386 -1.7195 0.1247
| 32> H -4.2992 1.357 -0.1421
| 33> H -5.7574 0.2282 -0.0655
| 34> *
| 35> 
| 36> 
| 37>                          ****END OF INPUT****
================================================================================

                       *****************************
                       * Geometry Optimization Run *
                       *****************************

Geometry optimization settings:
Update method            Update   .... BFGS
Choice of coordinates    CoordSys .... Redundant Internals
Initial Hessian          InHess   .... Almoef's Model

Convergence Tolerances:
Energy Change            TolE     ....  1.0000e-04 Eh
Max. Gradient            TolMAXG  ....  3.0000e-03 Eh/bohr
RMS Gradient             TolRMSG  ....  2.0000e-03 Eh/bohr
Max. Displacement        TolMAXD  ....  3.0000e-02 bohr
RMS Displacement         TolRMSD  ....  2.0000e-02 bohr

------------------------------------------------------------------------------
                        ORCA OPTIMIZATION COORDINATE SETUP
------------------------------------------------------------------------------

The optimization will be done in new redundant internal coordinates
Making redundant internal coordinates   ...  (new redundants) done
Evaluating the initial hessian          ...  (Almloef) done
Evaluating the coordinates              ...  done
Calculating the B-matrix                .... done
Calculating the G-matrix                .... done
Diagonalizing the G-matrix              .... done
Small eigenvalue found = 2.310e-02
The first mode is                       ....   26
The number of degrees of freedom        ....   45

    -----------------------------------------------------------------
                    Redundant Internal Coordinates


    -----------------------------------------------------------------
         Definition                    Initial Value    Approx d2E/dq
    -----------------------------------------------------------------
      1. B(N   1,C   0)                  1.3487         0.651391   
      2. B(N   2,C   0)                  1.2860         0.819951   
      3. B(C   4,N   3)                  1.3531         0.640903   
      4. B(O   5,C   4)                  1.2272         1.017644   
      5. B(C   6,C   4)                  1.4828         0.444306   
      6. B(C   7,C   6)                  1.3393         0.752593   
      7. B(H   8,C   0)                  1.1036         0.342548   
      8. B(H   9,N   1)                  1.0117         0.430013   
      9. B(H  10,N   1)                  1.0267         0.406988   
     10. B(H  10,O   5)                  1.7953         0.024171   
     11. B(H  11,N   2)                  1.0282         0.404666   
     12. B(H  12,N   3)                  1.0052         0.440469   
     13. B(H  13,N   3)                  1.0268         0.406776   
     14. B(H  13,N   2)                  1.7969         0.024027   
     15. B(H  14,C   6)                  1.0866         0.364617   
     16. B(H  15,C   7)                  1.0824         0.370304   
     17. B(H  16,C   7)                  1.0861         0.365358   
     18. A(N   1,C   0,N   2)          123.7574         0.454643   
     19. A(N   1,C   0,H   8)          113.9513         0.350703   
     20. A(N   2,C   0,H   8)          122.2878         0.364696   
     21. A(H   9,N   1,H  10)          111.3595         0.300007   
     22. A(C   0,N   1,H   9)          117.6454         0.361315   
     23. A(C   0,N   1,H  10)          114.8913         0.357944   
     24. A(C   0,N   2,H  11)          108.4338         0.371957   
     25. A(H  11,N   2,H  13)          134.7177         0.198694   
     26. A(C   0,N   2,H  13)          116.2244         0.238328   
     27. A(H  12,N   3,H  13)          116.4415         0.301133   
     28. A(C   4,N   3,H  13)          118.3113         0.356926   
     29. A(C   4,N   3,H  12)          125.1944         0.361796   
     30. A(N   3,C   4,C   6)          117.6072         0.408757   
     31. A(N   3,C   4,O   5)          121.8664         0.471555   
     32. A(O   5,C   4,C   6)          120.5265         0.444033   
     33. A(C   4,O   5,H  10)          118.2310         0.246021   
     34. A(C   4,C   6,H  14)          113.2461         0.334429   
     35. A(C   4,C   6,C   7)          127.0523         0.423349   
     36. A(C   7,C   6,H  14)          119.7015         0.365522   
     37. A(H  15,C   7,H  16)          116.6709         0.292788   
     38. A(C   6,C   7,H  16)          119.7813         0.365649   
     39. A(C   6,C   7,H  15)          123.5478         0.366493   
     40. A(N   1,H  10,O   5)          173.2965         0.198985   
     41. L(N   2,H  13,N   3,C   4, 2) 175.9017         0.198823   
     42. L(N   2,H  13,N   3,C   4, 1) 180.3651         0.198823   
     43. D(H   9,N   1,C   0,H   8)     31.8654         0.034641   
     44. D(H   9,N   1,C   0,N   2)   -148.7978         0.034641   
     45. D(H  10,N   1,C   0,N   2)    -14.6665         0.034641   
     46. D(H  10,N   1,C   0,H   8)    165.9966         0.034641   
     47. D(H  11,N   2,C   0,H   8)      0.1465         0.057671   
     48. D(H  13,N   2,C   0,N   1)      8.5760         0.057671   
     49. D(H  11,N   2,C   0,N   1)   -179.1366         0.057671   
     50. D(H  13,N   2,C   0,H   8)   -172.1409         0.057671   
     51. D(H  12,N   3,N   2,H  11)     19.2451         0.001501   
     52. D(C   4,N   3,N   2,H  11)   -161.6979         0.001501   
     53. D(H  12,N   3,N   2,C   0)   -172.2508         0.001501   
     54. D(C   4,N   3,N   2,C   0)      6.8062         0.001501   
     55. D(C   6,C   4,N   3,H  12)     -1.9465         0.033441   
     56. D(O   5,C   4,N   3,H  13)      0.7911         0.033441   
     57. D(C   6,C   4,N   3,H  13)   -179.2021         0.033441   
     58. D(O   5,C   4,N   3,H  12)    178.0467         0.033441   
     59. D(H  10,O   5,C   4,C   6)    168.3229         0.085293   
     60. D(H  10,O   5,C   4,N   3)    -11.6701         0.085293   
     61. D(H  14,C   6,C   4,O   5)     -0.0878         0.013464   
     62. D(H  14,C   6,C   4,N   3)    179.9054         0.013464   
     63. D(C   7,C   6,C   4,O   5)    179.9822         0.013464   
     64. D(C   7,C   6,C   4,N   3)     -0.0246         0.013464   
     65. D(H  16,C   7,C   6,H  14)      0.0152         0.040420   
     66. D(H  16,C   7,C   6,C   4)    179.9411         0.040420   
     67. D(H  15,C   7,C   6,H  14)    179.9760         0.040420   
     68. D(H  15,C   7,C   6,C   4)     -0.0980         0.040420   
     69. D(N   1,H  10,O   5,C   4)    128.0642         0.001776   
     70. D(O   5,H  10,N   1,H   9)     32.4834         0.185288   
     71. D(O   5,H  10,N   1,C   0)   -104.4618         0.185288   
    -----------------------------------------------------------------

Number of atoms                         .... 17
Number of degrees of freedom            .... 71

         *************************************************************
         *                GEOMETRY OPTIMIZATION CYCLE   1            *
         *************************************************************
---------------------------------
CARTESIAN COORDINATES (ANGSTROEM)
---------------------------------
  C      1.637300   -0.724100    0.039800
  N      0.988300   -1.883700   -0.190400
  N      1.062800    0.426400    0.050600
  N     -1.759300    0.424700   -0.027500
  C     -2.408700   -0.758500    0.068000
  O     -1.805400   -1.822300    0.170000
  C     -3.891100   -0.732500    0.045400
  C     -4.677800    0.346300   -0.060100
  H      2.721200   -0.843400    0.209700
  H      1.339600   -2.716500    0.264100
  H     -0.034800   -1.826300   -0.126800
  H      1.775900    1.144200    0.233700
  H     -2.201000    1.320500   -0.140600
  H     -0.732500    0.418200   -0.025500
  H     -4.338600   -1.719500    0.124700
  H     -4.299200    1.357000   -0.142100
  H     -5.757400    0.228200   -0.065500

----------------------------
CARTESIAN COORDINATES (A.U.)
----------------------------
  NO LB      ZA    FRAG     MASS         X           Y           Z
   0 C     6.0000    0    12.011    3.094049   -1.368351    0.075211
   1 N     7.0000    0    14.007    1.867616   -3.559677   -0.359804
   2 N     7.0000    0    14.007    2.008401    0.805779    0.095620
   3 N     7.0000    0    14.007   -3.324595    0.802567   -0.051967
   4 C     6.0000    0    12.011   -4.551783   -1.433357    0.128501
   5 O     8.0000    0    15.999   -3.411712   -3.443648    0.321253
   6 C     6.0000    0    12.011   -7.353113   -1.384224    0.085794
   7 C     6.0000    0    12.011   -8.839761    0.654412   -0.113573
   8 H     1.0000    0     1.008    5.142323   -1.593795    0.396276
   9 H     1.0000    0     1.008    2.531477   -5.133441    0.499077
  10 H     1.0000    0     1.008   -0.065762   -3.451207   -0.239617
  11 H     1.0000    0     1.008    3.355965    2.162225    0.441629
  12 H     1.0000    0     1.008   -4.159287    2.495383   -0.265695
  13 H     1.0000    0     1.008   -1.384224    0.790283   -0.048188
  14 H     1.0000    0     1.008   -8.198766   -3.249384    0.235649
  15 H     1.0000    0     1.008   -8.124311    2.564358   -0.268530
  16 H     1.0000    0     1.008  -10.879909    0.431236   -0.123777

--------------------------------
INTERNAL COORDINATES (ANGSTROEM)
--------------------------------
 C      0   0   0     0.000000000000     0.00000000     0.00000000
 N      1   0   0     1.348653105880     0.00000000     0.00000000
 N      1   2   0     1.286008219258   123.75739536     0.00000000
 N      3   1   2     2.823180991364   116.47383753     9.50845367
 C      4   3   1     1.353071635206   118.57673399     6.80624310
 O      5   4   3     1.227210385386   121.86636979   359.08176729
 C      5   4   3     1.482800229296   117.60715540   179.08859526
 C      7   5   4     1.339341845833   127.05228084   359.97541977
 H      1   2   3     1.103602152046   113.95132024   180.66313939
 H      2   1   3     1.011700439854   117.64544689   211.20224210
 H      2   1   3     1.026680734211   114.89127440   345.33350684
 H      3   1   2     1.028238328404   108.43381613   180.86338180
 H      4   3   1     1.005160753313   116.22134025   187.74916325
 H      4   3   1     1.026822521179     1.52620557   286.41474378
 H      7   5   4     1.086606524921   113.24614766   179.90542121
 H      8   7   5     1.082393851609   123.54783755   359.90195783
 H      8   7   5     1.086053833841   119.78128830   179.94112027

---------------------------
INTERNAL COORDINATES (A.U.)
---------------------------
 C      0   0   0     0.000000000000     0.00000000     0.00000000
 N      1   0   0     2.548585019776     0.00000000     0.00000000
 N      1   2   0     2.430203340370   123.75739536     0.00000000
 N      3   1   2     5.335038900171   116.47383753     9.50845367
 C      4   3   1     2.556934830117   118.57673399     6.80624310
 O      5   4   3     2.319091537084   121.86636979   359.08176729
 C      5   4   3     2.802086344685   117.60715540   179.08859526
 C      7   5   4     2.530989288325   127.05228084   359.97541977
 H      1   2   3     2.085505828173   113.95132024   180.66313939
 H      2   1   3     1.911836760891   117.64544689   211.20224210
 H      2   1   3     1.940145414632   114.89127440   345.33350684
 H      3   1   2     1.943088841085   108.43381613   180.86338180
 H      4   3   1     1.899478544327   116.22134025   187.74916325
 H      4   3   1     1.940413353170     1.52620557   286.41474378
 H      7   5   4     2.053388747432   113.24614766   179.90542121
 H      8   7   5     2.045427948580   123.54783755   359.90195783
 H      8   7   5     2.052344312654   119.78128830   179.94112027

---------------------
BASIS SET INFORMATION
---------------------
There are 4 groups of distinct atoms

 Group   1 Type C   : 17s4p1d contracted to 3s2p1d pattern {881/31/1}
 Group   2 Type N   : 17s4p1d contracted to 3s2p1d pattern {881/31/1}
 Group   3 Type O   : 17s4p1d contracted to 3s2p1d pattern {881/31/1}
 Group   4 Type H   : 4s1p contracted to 2s1p pattern {31/1}

Atom   0C    basis set group =>   1
Atom   1N    basis set group =>   2
Atom   2N    basis set group =>   2
Atom   3N    basis set group =>   2
Atom   4C    basis set group =>   1
Atom   5O    basis set group =>   3
Atom   6C    basis set group =>   1
Atom   7C    basis set group =>   1
Atom   8H    basis set group =>   4
Atom   9H    basis set group =>   4
Atom  10H    basis set group =>   4
Atom  11H    basis set group =>   4
Atom  12H    basis set group =>   4
Atom  13H    basis set group =>   4
Atom  14H    basis set group =>   4
Atom  15H    basis set group =>   4
Atom  16H    basis set group =>   4
-------------------------------
AUXILIARY BASIS SET INFORMATION
-------------------------------
There are 4 groups of distinct atoms

 Group   1 Type C   : 12s5p4d2f1g contracted to 6s4p3d1f1g pattern {711111/2111/211/2/1}
 Group   2 Type N   : 12s5p4d2f1g contracted to 6s4p3d1f1g pattern {711111/2111/211/2/1}
 Group   3 Type O   : 12s5p4d2f1g contracted to 6s4p3d1f1g pattern {711111/2111/211/2/1}
 Group   4 Type H   : 5s2p1d contracted to 3s1p1d pattern {311/2/1}

Atom   0C    basis set group =>   1
Atom   1N    basis set group =>   2
Atom   2N    basis set group =>   2
Atom   3N    basis set group =>   2
Atom   4C    basis set group =>   1
Atom   5O    basis set group =>   3
Atom   6C    basis set group =>   1
Atom   7C    basis set group =>   1
Atom   8H    basis set group =>   4
Atom   9H    basis set group =>   4
Atom  10H    basis set group =>   4
Atom  11H    basis set group =>   4
Atom  12H    basis set group =>   4
Atom  13H    basis set group =>   4
Atom  14H    basis set group =>   4
Atom  15H    basis set group =>   4
Atom  16H    basis set group =>   4


           ************************************************************
           *        Program running with 6 parallel MPI-processes     *
           *              working on a common directory               *
           ************************************************************
------------------------------------------------------------------------------
                           ORCA GTO INTEGRAL CALCULATION
                           -- RI-GTO INTEGRALS CHOSEN --
------------------------------------------------------------------------------

                         BASIS SET STATISTICS AND STARTUP INFO

Gaussian basis set:
 # of primitive gaussian shells          ...  221
 # of primitive gaussian functions       ...  335
 # of contracted shells                  ...   75
 # of contracted basis functions         ...  157
 Highest angular momentum                ...    2
 Maximum contraction depth               ...    8
Auxiliary gaussian basis set:
 # of primitive gaussian shells          ...  264
 # of primitive gaussian functions       ...  704
 # of contracted shells                  ...  165
 # of contracted aux-basis functions     ...  491
 Highest angular momentum                ...    4
 Maximum contraction depth               ...    7
Ratio of auxiliary to basis functions    ...  3.13
Integral package used                  ... LIBINT
 One Electron integrals                  ... done
 Ordering auxiliary basis shells         ... done
 Integral threshhold             Thresh  ...  2.500e-11
 Primitive cut-off               TCut    ...  2.500e-12
 Pre-screening matrix                    ... done
 Shell pair data                         ... 
 Ordering of the shell pairs             ... done (   0.000 sec) 2601 of 2850 pairs
 Determination of significant pairs      ... done (   0.000 sec)
 Creation of shell pair data             ... done (   0.001 sec)
 Storage of shell pair data              ... done (   0.002 sec)
 Shell pair data done in (   0.003 sec)
 Computing two index integrals           ... done
 Cholesky decomposition of the V-matrix  ... done


Timings:
 Total evaluation time                   ...   0.342 sec (  0.006 min)
 One electron matrix time                ...   0.037 sec (  0.001 min) = 10.8%
 Schwartz matrix evaluation time         ...   0.231 sec (  0.004 min) = 67.7%
 Two index repulsion integral time       ...   0.042 sec (  0.001 min) = 12.3%
 Cholesky decomposition of V             ...   0.010 sec (  0.000 min) =  3.0%
 Three index repulsion integral time     ...   0.000 sec (  0.000 min) =  0.0%



           ************************************************************
           *        Program running with 6 parallel MPI-processes     *
           *              working on a common directory               *
           ************************************************************
-------------------------------------------------------------------------------
                                 ORCA SCF
-------------------------------------------------------------------------------

------------
SCF SETTINGS
------------
Hamiltonian:
 Density Functional     Method          .... DFT(GTOs)
 Exchange Functional    Exchange        .... B88
   X-Alpha parameter    XAlpha          ....  0.666667
   Becke's b parameter  XBeta           ....  0.004200
 Correlation Functional Correlation     .... LYP
 LDA part of GGA corr.  LDAOpt          .... VWN-5
 Gradients option       PostSCFGGA      .... off
 Hybrid DFT is turned on
   Fraction HF Exchange ScalHFX         ....  0.200000
   Scaling of DF-GGA-X  ScalDFX         ....  0.720000
   Scaling of DF-GGA-C  ScalDFC         ....  0.810000
   Scaling of DF-LDA-C  ScalLDAC        ....  1.000000
   Perturbative correction              ....  0.000000
   NL short-range parameter             ....  4.800000
 RI-approximation to the Coulomb term is turned on
   Number of auxiliary basis functions  .... 491
   RIJ-COSX (HFX calculated with COS-X)).... on


General Settings:
 Integral files         IntName         .... AT-v/e/frag_04_c00001
 Hartree-Fock type      HFTyp           .... RHF
 Total Charge           Charge          ....    0
 Multiplicity           Mult            ....    1
 Number of Electrons    NEL             ....   62
 Basis Dimension        Dim             ....  157
 Nuclear Repulsion      ENuc            ....    354.3930417062 Eh

Convergence Acceleration:
 DIIS                   CNVDIIS         .... on
   Start iteration      DIISMaxIt       ....    12
   Startup error        DIISStart       ....  0.200000
   # of expansion vecs  DIISMaxEq       ....     5
   Bias factor          DIISBfac        ....   1.050
   Max. coefficient     DIISMaxC        ....  10.000
 Newton-Raphson         CNVNR           .... off
 SOSCF                  CNVSOSCF        .... on
   Start iteration      SOSCFMaxIt      ....   150
   Startup grad/error   SOSCFStart      ....  0.003300
 Level Shifting         CNVShift        .... on
   Level shift para.    LevelShift      ....    0.2500
   Turn off err/grad.   ShiftErr        ....    0.0010
 Zerner damping         CNVZerner       .... off
 Static damping         CNVDamp         .... on
   Fraction old density DampFac         ....    0.7000
   Max. Damping (<1)    DampMax         ....    0.9800
   Min. Damping (>=0)   DampMin         ....    0.0000
   Turn off err/grad.   DampErr         ....    0.1000
 Fernandez-Rico         CNVRico         .... off

SCF Procedure:
 Maximum # iterations   MaxIter         ....   125
 SCF integral mode      SCFMode         .... Direct
   Integral package                     .... LIBINT
 Reset frequeny         DirectResetFreq ....    20
 Integral Threshold     Thresh          ....  2.500e-11 Eh
 Primitive CutOff       TCut            ....  2.500e-12 Eh

Convergence Tolerance:
 Convergence Check Mode ConvCheckMode   .... Total+1el-Energy
 Convergence forced     ConvForced      .... 0
 Energy Change          TolE            ....  1.000e-08 Eh
 1-El. energy change                    ....  1.000e-05 Eh
 Orbital Gradient       TolG            ....  1.000e-05
 Orbital Rotation angle TolX            ....  1.000e-05
 DIIS Error             TolErr          ....  5.000e-07


Diagonalization of the overlap matrix:
Smallest eigenvalue                        ... 2.111e-03
Time for diagonalization                   ...    0.006 sec
Threshold for overlap eigenvalues          ... 1.000e-08
Number of eigenvalues below threshold      ... 0
Time for construction of square roots      ...    0.003 sec
Total time needed                          ...    0.009 sec

-------------------
DFT GRID GENERATION
-------------------

General Integration Accuracy     IntAcc      ...  4.340
Radial Grid Type                 RadialGrid  ... Gauss-Chebyshev
Angular Grid (max. acc.)         AngularGrid ... Lebedev-110
Angular grid pruning method      GridPruning ... 3 (G Style)
Weight generation scheme         WeightScheme... Becke
Basis function cutoff            BFCut       ...    1.0000e-11
Integration weight cutoff        WCut        ...    1.0000e-14
Grids for H and He will be reduced by one unit

# of grid points (after initial pruning)     ...  20592 (   0.0 sec)
# of grid points (after weights+screening)   ...  19261 (   0.0 sec)
nearest neighbour list constructed           ...    0.0 sec
Grid point re-assignment to atoms done       ...    0.0 sec
Grid point division into batches done        ...    0.0 sec
Reduced shell lists constructed in    0.1 sec

Total number of grid points                  ...    19261
Total number of batches                      ...      307
Average number of points per batch           ...       62
Average number of grid points per atom       ...     1133
Average number of shells per batch           ...    54.53 (72.70%)
Average number of basis functions per batch  ...   110.45 (70.35%)
Average number of large shells per batch     ...    39.85 (73.08%)
Average number of large basis fcns per batch ...    80.49 (72.87%)
Maximum spatial batch extension              ...   9.34,  7.81, 22.41 au
Average spatial batch extension              ...   0.33,  0.34,  0.51 au

Time for grid setup =    0.098 sec

------------------------------
INITIAL GUESS: MODEL POTENTIAL
------------------------------
Loading Hartree-Fock densities                     ... done
Calculating cut-offs                               ... done
Setting up the integral package                    ... done
Initializing the effective Hamiltonian             ... done
Starting the Coulomb interaction                   ... done (   0.0 sec)
Reading the grid                                   ... done
Mapping shells                                     ... done
Starting the XC term evaluation                    ... done (   0.1 sec)
  promolecular density results
     # of electrons  =     62.010974104
     EX              =    -51.132812931
     EC              =     -2.088541527
     EX+EC           =    -53.221354458
Transforming the Hamiltonian                       ... done (   0.0 sec)
Diagonalizing the Hamiltonian                      ... done (   0.0 sec)
Back transforming the eigenvectors                 ... done (   0.0 sec)
Now organizing SCF variables                       ... done
                      ------------------
                      INITIAL GUESS DONE (   0.4 sec)
                      ------------------
--------------------
COSX GRID GENERATION
--------------------

General Integration Accuracy     IntAcc      ...  3.340
Radial Grid Type                 RadialGrid  ... Gauss-Chebyshev
Angular Grid (max. acc.)         AngularGrid ... Lebedev-50
Angular grid pruning method      GridPruning ... 3 (G Style)
Weight generation scheme         WeightScheme... Becke
Basis function cutoff            BFCut       ...    1.0000e-11
Integration weight cutoff        WCut        ...    1.0000e-14
Grids for H and He will be reduced by one unit

# of grid points (after initial pruning)     ...   7478 (   0.0 sec)
# of grid points (after weights+screening)   ...   7048 (   0.0 sec)
nearest neighbour list constructed           ...    0.0 sec
Grid point re-assignment to atoms done       ...    0.0 sec
Grid point division into batches done        ...    0.0 sec
Reduced shell lists constructed in    0.0 sec

Total number of grid points                  ...     7048
Total number of batches                      ...      116
Average number of points per batch           ...       60
Average number of grid points per atom       ...      415
Average number of shells per batch           ...    54.38 (72.51%)
Average number of basis functions per batch  ...   110.57 (70.43%)
Average number of large shells per batch     ...    40.05 (73.64%)
Average number of large basis fcns per batch ...    81.19 (73.43%)
Maximum spatial batch extension              ...   4.53,  8.19, 16.04 au
Average spatial batch extension              ...   0.39,  0.45,  0.80 au

Overlap Fitting                  UseSFitting ... on
Constructing numerical overlap ... done (      0.0 sec)
Inverting numerical overlap    ... done (      0.0 sec)
Obtaining analytic overlap     ... done (      0.0 sec)
Final contraction and storage  ... done (      0.0 sec)


General Integration Accuracy     IntAcc      ...  3.670
Radial Grid Type                 RadialGrid  ... Gauss-Chebyshev
Angular Grid (max. acc.)         AngularGrid ... Lebedev-50
Angular grid pruning method      GridPruning ... 3 (G Style)
Weight generation scheme         WeightScheme... Becke
Basis function cutoff            BFCut       ...    1.0000e-11
Integration weight cutoff        WCut        ...    1.0000e-14
Grids for H and He will be reduced by one unit

# of grid points (after initial pruning)     ...   9596 (   0.0 sec)
# of grid points (after weights+screening)   ...   9018 (   0.0 sec)
nearest neighbour list constructed           ...    0.0 sec
Grid point re-assignment to atoms done       ...    0.0 sec
Grid point division into batches done        ...    0.0 sec
Reduced shell lists constructed in    0.0 sec

Total number of grid points                  ...     9018
Total number of batches                      ...      150
Average number of points per batch           ...       60
Average number of grid points per atom       ...      530
Average number of shells per batch           ...    54.96 (73.28%)
Average number of basis functions per batch  ...   111.73 (71.17%)
Average number of large shells per batch     ...    40.19 (73.13%)
Average number of large basis fcns per batch ...    81.04 (72.53%)
Maximum spatial batch extension              ...   4.64,  9.16, 17.17 au
Average spatial batch extension              ...   0.36,  0.41,  0.63 au

Overlap Fitting                  UseSFitting ... on
Constructing numerical overlap ... done (      0.0 sec)
Inverting numerical overlap    ... done (      0.0 sec)
Obtaining analytic overlap     ... done (      0.0 sec)
Final contraction and storage  ... done (      0.0 sec)


General Integration Accuracy     IntAcc      ...  4.010
Radial Grid Type                 RadialGrid  ... Gauss-Chebyshev
Angular Grid (max. acc.)         AngularGrid ... Lebedev-110
Angular grid pruning method      GridPruning ... 3 (G Style)
Weight generation scheme         WeightScheme... Becke
Basis function cutoff            BFCut       ...    1.0000e-11
Integration weight cutoff        WCut        ...    1.0000e-14
Grids for H and He will be reduced by one unit

# of grid points (after initial pruning)     ...  17710 (   0.0 sec)
# of grid points (after weights+screening)   ...  16589 (   0.0 sec)
nearest neighbour list constructed           ...    0.0 sec
Grid point re-assignment to atoms done       ...    0.0 sec
Grid point division into batches done        ...    0.0 sec
Reduced shell lists constructed in    0.0 sec

Total number of grid points                  ...    16589
Total number of batches                      ...      268
Average number of points per batch           ...       61
Average number of grid points per atom       ...      976
Average number of shells per batch           ...    54.67 (72.90%)
Average number of basis functions per batch  ...   111.02 (70.71%)
Average number of large shells per batch     ...    40.04 (73.24%)
Average number of large basis fcns per batch ...    80.70 (72.68%)
Maximum spatial batch extension              ...   9.30,  7.37, 19.34 au
Average spatial batch extension              ...   0.34,  0.35,  0.57 au

Overlap Fitting                  UseSFitting ... on
Constructing numerical overlap ... done (      0.0 sec)
Inverting numerical overlap    ... done (      0.0 sec)
Obtaining analytic overlap     ... done (      0.0 sec)
Final contraction and storage  ... done (      0.0 sec)

Time for X-Grid setup             =    0.292 sec
--------------
SCF ITERATIONS
--------------
ITER       Energy         Delta-E        Max-DP      RMS-DP      [F,P]     Damp
               ***  Starting incremental Fock matrix formation  ***
  0   -396.7653913190   0.000000000000 0.09175344  0.00276590  0.2659453 0.7000
  1   -396.9324654628  -0.167074143776 0.05813591  0.00181793  0.1143027 0.7000
                               ***Turning on DIIS***
  2   -396.9941598740  -0.061694411193 0.07570779  0.00260481  0.0427529 0.0000
  3   -397.0902050499  -0.096045175872 0.03981738  0.00126773  0.0654383 0.0000
  4   -397.1128181259  -0.022613076073 0.00853055  0.00035755  0.0137386 0.0000
  5   -397.1142111457  -0.001393019794 0.00397022  0.00012495  0.0054565 0.0000
                      *** Initiating the SOSCF procedure ***
                           *** Shutting down DIIS ***
                      *** Re-Reading the Fockian *** 
                      *** Removing any level shift *** 
ITER      Energy       Delta-E        Grad      Rot      Max-DP    RMS-DP
  6   -397.11430430  -0.0000931527  0.000494  0.000494  0.001224  0.000043
               *** Restarting incremental Fock matrix formation ***
  7   -397.11432343  -0.0000191293  0.000158  0.000589  0.000752  0.000029
  8   -397.11432276   0.0000006713  0.000363  0.000485  0.000545  0.000014
  9   -397.11432460  -0.0000018397  0.000061  0.000104  0.000202  0.000008
 10   -397.11432456   0.0000000395  0.000062  0.000062  0.000109  0.000004
 11   -397.11432470  -0.0000001406  0.000015  0.000044  0.000065  0.000002
 12   -397.11432469   0.0000000087  0.000023  0.000030  0.000043  0.000001
 13   -397.11432470  -0.0000000096  0.000003  0.000007  0.000011  0.000000
 14   -397.11432470  -0.0000000021  0.000004  0.000004  0.000007  0.000000
                  ***Gradient check signals convergence***
              ***Rediagonalizing the Fockian in SOSCF/NRSCF***

               *****************************************************
               *                     SUCCESS                       *
               *           SCF CONVERGED AFTER  15 CYCLES          *
               *****************************************************

Setting up the final grid:

General Integration Accuracy     IntAcc      ...  4.670
Radial Grid Type                 RadialGrid  ... Gauss-Chebyshev
Angular Grid (max. acc.)         AngularGrid ... Lebedev-302
Angular grid pruning method      GridPruning ... 3 (G Style)
Weight generation scheme         WeightScheme... Becke
Basis function cutoff            BFCut       ...    1.0000e-11
Integration weight cutoff        WCut        ...    1.0000e-14
Grids for H and He will be reduced by one unit

# of grid points (after initial pruning)     ...  80242 (   0.0 sec)
# of grid points (after weights+screening)   ...  74071 (   0.1 sec)
nearest neighbour list constructed           ...    0.0 sec
Grid point re-assignment to atoms done       ...    0.0 sec
Grid point division into batches done        ...    0.3 sec
Reduced shell lists constructed in    0.5 sec

Total number of grid points                  ...    74071
Total number of batches                      ...     1166
Average number of points per batch           ...       63
Average number of grid points per atom       ...     4357
Average number of shells per batch           ...    51.86 (69.15%)
Average number of basis functions per batch  ...   104.28 (66.42%)
Average number of large shells per batch     ...    37.16 (71.65%)
Average number of large basis fcns per batch ...    74.64 (71.57%)
Maximum spatial batch extension              ...  10.45, 10.59, 17.91 au
Average spatial batch extension              ...   0.23,  0.25,  0.31 au

Final grid set up in    0.6 sec
Final integration                            ... done (   0.3 sec)
Change in XC energy                          ...    -0.000290573
Integrated number of electrons               ...    61.999837617
Previous integrated no of electrons          ...    62.003681330
Old exchange energy                            =    -10.401479120 Eh
New exchange energy                            =    -10.401254044 Eh
Exchange energy change after final integration =      0.000225076 Eh
Total energy after final integration           =   -397.114390193 Eh
Final COS-X integration done in                =     1.799 sec

----------------
TOTAL SCF ENERGY
----------------

Total Energy       :         -397.11439019 Eh          -10806.03193 eV

Components:
Nuclear Repulsion  :          354.39304171 Eh            9643.52493 eV
Electronic Energy  :         -751.50743190 Eh          -20449.55686 eV
One Electron Energy:        -1241.85658353 Eh          -33792.63562 eV
Two Electron Energy:          490.34915163 Eh           13343.07876 eV

Virial components:
Potential Energy   :         -791.96342872 Eh          -21550.42050 eV
Kinetic Energy     :          394.84903853 Eh           10744.38857 eV
Virial Ratio       :            2.00573726


DFT components:
N(Alpha)           :       30.999918808551 electrons
N(Beta)            :       30.999918808551 electrons
N(Total)           :       61.999837617103 electrons
E(X)               :      -41.348611182550 Eh       
E(C)               :       -2.472822281082 Eh       
E(XC)              :      -43.821433463632 Eh       

---------------
SCF CONVERGENCE
---------------

  Last Energy change         ...    3.2344e-09  Tolerance :   1.0000e-08
  Last MAX-Density change    ...    2.0960e-13  Tolerance :   1.0000e-07
  Last RMS-Density change    ...    1.4229e-15  Tolerance :   5.0000e-09
  Last Orbital Gradient      ...    5.4240e-07  Tolerance :   1.0000e-05
  Last Orbital Rotation      ...    1.9859e-06  Tolerance :   1.0000e-05

             **** THE GBW FILE WAS UPDATED (AT-v/e/frag_04_c00001.gbw) ****
             **** DENSITY FILE WAS UPDATED (AT-v/e/frag_04_c00001.scfp.tmp) ****
             **** ENERGY FILE WAS UPDATED (AT-v/e/frag_04_c00001.en.tmp) ****
----------------
ORBITAL ENERGIES
----------------

  NO   OCC          E(Eh)            E(eV) 
   0   2.0000     -19.097089      -519.6582 
   1   2.0000     -14.318905      -389.6372 
   2   2.0000     -14.316430      -389.5699 
   3   2.0000     -14.290870      -388.8743 
   4   2.0000     -10.277273      -279.6588 
   5   2.0000     -10.249294      -278.8975 
   6   2.0000     -10.201181      -277.5882 
   7   2.0000     -10.195179      -277.4249 
   8   2.0000      -1.026791       -27.9404 
   9   2.0000      -0.932906       -25.3857 
  10   2.0000      -0.881734       -23.9932 
  11   2.0000      -0.840089       -22.8600 
  12   2.0000      -0.778937       -21.1959 
  13   2.0000      -0.636070       -17.3084 
  14   2.0000      -0.593929       -16.1616 
  15   2.0000      -0.560423       -15.2499 
  16   2.0000      -0.538174       -14.6445 
  17   2.0000      -0.519705       -14.1419 
  18   2.0000      -0.475386       -12.9359 
  19   2.0000      -0.449455       -12.2303 
  20   2.0000      -0.442949       -12.0533 
  21   2.0000      -0.427831       -11.6419 
  22   2.0000      -0.403049       -10.9675 
  23   2.0000      -0.396945       -10.8014 
  24   2.0000      -0.373002       -10.1499 
  25   2.0000      -0.361140        -9.8271 
  26   2.0000      -0.277989        -7.5645 
  27   2.0000      -0.273641        -7.4461 
  28   2.0000      -0.249884        -6.7997 
  29   2.0000      -0.246067        -6.6958 
  30   2.0000      -0.230295        -6.2666 
  31   0.0000      -0.035290        -0.9603 
  32   0.0000       0.036885         1.0037 
  33   0.0000       0.059138         1.6092 
  34   0.0000       0.063841         1.7372 
  35   0.0000       0.089811         2.4439 
  36   0.0000       0.101861         2.7718 
  37   0.0000       0.107421         2.9231 
  38   0.0000       0.128081         3.4853 
  39   0.0000       0.142664         3.8821 
  40   0.0000       0.176233         4.7955 
  41   0.0000       0.218067         5.9339 
  42   0.0000       0.243839         6.6352 
  43   0.0000       0.280514         7.6332 
  44   0.0000       0.304117         8.2755 
  45   0.0000       0.317169         8.6306 
  46   0.0000       0.349560         9.5120 
  47   0.0000       0.357999         9.7416 
  48   0.0000       0.404950        11.0192 
  49   0.0000       0.450188        12.2502 
  50   0.0000       0.463023        12.5995 
  51   0.0000       0.464160        12.6304 
  52   0.0000       0.488658        13.2971 
  53   0.0000       0.492120        13.3913 
  54   0.0000       0.504794        13.7361 
  55   0.0000       0.509625        13.8676 
  56   0.0000       0.540806        14.7161 
  57   0.0000       0.550302        14.9745 
  58   0.0000       0.564339        15.3564 
  59   0.0000       0.573058        15.5937 
  60   0.0000       0.592124        16.1125 
  61   0.0000       0.603269        16.4158 
  62   0.0000       0.628881        17.1127 
  63   0.0000       0.651361        17.7244 
  64   0.0000       0.664794        18.0900 
  65   0.0000       0.692034        18.8312 
  66   0.0000       0.710619        19.3369 
  67   0.0000       0.738819        20.1043 
  68   0.0000       0.747732        20.3468 
  69   0.0000       0.759917        20.6784 
  70   0.0000       0.767273        20.8786 
  71   0.0000       0.790455        21.5094 
  72   0.0000       0.799439        21.7538 
  73   0.0000       0.827292        22.5118 
  74   0.0000       0.864635        23.5279 
  75   0.0000       0.898875        24.4596 
  76   0.0000       0.911527        24.8039 
  77   0.0000       0.920223        25.0405 
  78   0.0000       0.960007        26.1231 
  79   0.0000       0.973285        26.4844 
  80   0.0000       0.997673        27.1481 
  81   0.0000       1.000987        27.2382 
  82   0.0000       1.034151        28.1407 
  83   0.0000       1.035439        28.1757 
  84   0.0000       1.090904        29.6850 
  85   0.0000       1.101321        29.9685 
  86   0.0000       1.117648        30.4127 
  87   0.0000       1.130891        30.7731 
  88   0.0000       1.155993        31.4562 
  89   0.0000       1.195506        32.5314 
  90   0.0000       1.217770        33.1372 
  91   0.0000       1.254478        34.1361 
  92   0.0000       1.292532        35.1716 
  93   0.0000       1.316536        35.8248 
  94   0.0000       1.326478        36.0953 
  95   0.0000       1.348476        36.6939 
  96   0.0000       1.374508        37.4023 
  97   0.0000       1.390916        37.8488 
  98   0.0000       1.476127        40.1675 
  99   0.0000       1.484951        40.4076 
 100   0.0000       1.496853        40.7314 
 101   0.0000       1.500409        40.8282 
 102   0.0000       1.506283        40.9880 
 103   0.0000       1.544094        42.0169 
 104   0.0000       1.560129        42.4533 
 105   0.0000       1.575622        42.8749 
 106   0.0000       1.631600        44.3981 
 107   0.0000       1.632780        44.4302 
 108   0.0000       1.668629        45.4057 
 109   0.0000       1.680631        45.7323 
 110   0.0000       1.683411        45.8079 
 111   0.0000       1.710344        46.5408 
 112   0.0000       1.725015        46.9401 
 113   0.0000       1.740919        47.3728 
 114   0.0000       1.756829        47.8057 
 115   0.0000       1.780303        48.4445 
 116   0.0000       1.810574        49.2682 
 117   0.0000       1.882753        51.2323 
 118   0.0000       1.899254        51.6813 
 119   0.0000       1.934011        52.6271 
 120   0.0000       1.947146        52.9845 
 121   0.0000       1.978837        53.8469 
 122   0.0000       2.008647        54.6581 
 123   0.0000       2.027011        55.1578 
 124   0.0000       2.057625        55.9908 
 125   0.0000       2.088752        56.8378 
 126   0.0000       2.139101        58.2079 
 127   0.0000       2.172258        59.1102 
 128   0.0000       2.204801        59.9957 
 129   0.0000       2.218099        60.3575 
 130   0.0000       2.239366        60.9363 
 131   0.0000       2.277915        61.9852 
 132   0.0000       2.284747        62.1711 
 133   0.0000       2.317317        63.0574 
 134   0.0000       2.348108        63.8953 
 135   0.0000       2.367310        64.4178 
 136   0.0000       2.373357        64.5823 
 137   0.0000       2.430621        66.1405 
 138   0.0000       2.505729        68.1844 
 139   0.0000       2.541560        69.1594 
 140   0.0000       2.588538        70.4377 
 141   0.0000       2.626959        71.4832 
 142   0.0000       2.642244        71.8991 
 143   0.0000       2.662142        72.4406 
 144   0.0000       2.727283        74.2132 
 145   0.0000       2.734605        74.4124 
 146   0.0000       2.752911        74.9105 
 147   0.0000       2.801243        76.2257 
 148   0.0000       2.894682        78.7683 
 149   0.0000       2.933726        79.8308 
 150   0.0000       3.029053        82.4247 
 151   0.0000       3.059212        83.2454 
 152   0.0000       3.107746        84.5661 
 153   0.0000       3.286340        89.4258 
 154   0.0000       3.350835        91.1809 
 155   0.0000       3.486139        94.8627 
 156   0.0000       3.564691        97.0002 
-------
TIMINGS
-------

Total SCF time: 0 days 0 hours 0 min 20 sec 

Total time                  ....      20.440 sec
Sum of individual times     ....      20.348 sec  ( 99.5%)

Fock matrix formation       ....      18.873 sec  ( 92.3%)
  Split-RI-J                ....       3.543 sec  ( 18.8% of F)
  Chain of spheres X        ....      13.883 sec  ( 73.6% of F)
  COS-X 1 center corr.      ....       0.000 sec  (  0.0% of F)
  XC integration            ....       1.396 sec  (  7.4% of F)
    Basis function eval.    ....       0.511 sec  ( 36.6% of XC)
    Density eval.           ....       0.221 sec  ( 15.8% of XC)
    XC-Functional eval.     ....       0.067 sec  (  4.8% of XC)
    XC-Potential eval.      ....       0.426 sec  ( 30.5% of XC)
Diagonalization             ....       0.050 sec  (  0.2%)
Density matrix formation    ....       0.016 sec  (  0.1%)
Population analysis         ....       0.000 sec  (  0.0%)
Initial guess               ....       0.256 sec  (  1.3%)
Orbital Transformation      ....       0.000 sec  (  0.0%)
Orbital Orthonormalization  ....       0.000 sec  (  0.0%)
DIIS solution               ....       0.016 sec  (  0.1%)
SOSCF solution              ....       0.146 sec  (  0.7%)
Grid generation             ....       0.990 sec  (  4.8%)


-------------------------------------------------------------------------------
                          DFT DISPERSION CORRECTION                            
                                                                               
                              DFTD3 V3.1  Rev 1                                
                          USING Becke-Johnson damping                          
-------------------------------------------------------------------------------
The B3LYP functional is recognized
Active option DFTDOPT                   ...         4   

molecular C6(AA) [au] = 2682.083187 


            DFT-D V3
 parameters
 s6 scaling factor         :     1.0000 
 a1 scaling factor         :     0.3981 
 s8 scaling factor         :     1.9889 
 a2 scaling factor         :     4.4211 
 ad hoc parameters k1-k3   :    16.0000     1.3333    -4.0000 

 Edisp/kcal,au: -14.025638786265  -0.022351275749 
 E6   /kcal   :  -6.915584900 
 E8   /kcal   :  -7.110053886 
 % E8         :  50.693262491 

-------------------------   ----------------
Dispersion correction           -0.022351276
-------------------------   ----------------


-------------------------   --------------------
FINAL SINGLE POINT ENERGY      -397.136741468967
-------------------------   --------------------



           ************************************************************
           *        Program running with 6 parallel MPI-processes     *
           *              working on a common directory               *
           ************************************************************
------------------------------------------------------------------------------
                         ORCA SCF GRADIENT CALCULATION
------------------------------------------------------------------------------

Gradient of the Kohn-Sham DFT energy:
Kohn-Sham wavefunction type      ... RKS
Hartree-Fock exchange scaling    ...    0.200
Number of operators              ...    1
Number of atoms                  ...   17
Basis set dimensions             ...  157
Integral neglect threshold       ... 2.5e-11
Integral primitive cutoff        ... 2.5e-12

Nuclear repulsion gradient       ... done
One Electron Gradient            ... done
Pre-screening matrix             ... done
RI-J gradient                    ... done
COSX-gradient                    ... done
Exchange-correlation gradient    ... done
Dispersion correction            ... done

------------------
CARTESIAN GRADIENT
------------------

   1   C   :   -0.011052292    0.000524152   -0.006252340
   2   N   :    0.006763547    0.005459259    0.001994015
   3   N   :   -0.006263138   -0.006434022    0.000398371
   4   N   :    0.001643628    0.006965788   -0.000365878
   5   C   :    0.001767588   -0.029164526    0.002642594
   6   O   :   -0.003718860    0.019527632   -0.001456509
   7   C   :    0.007947313   -0.003479258    0.000348874
   8   C   :   -0.002176016    0.010405002   -0.001242282
   9   H   :   -0.001863560    0.000302316   -0.000221476
  10   H   :   -0.006800009    0.001088976    0.001254037
  11   H   :    0.006553994    0.002110291    0.000951079
  12   H   :    0.005319888    0.000634815    0.003218239
  13   H   :    0.007818482   -0.000889942    0.000331744
  14   H   :   -0.010180999   -0.003836245   -0.000780692
  15   H   :    0.000995979    0.004939707   -0.000322048
  16   H   :   -0.003191664   -0.006848239    0.000369919
  17   H   :    0.005189073   -0.000689443    0.000220468

Difference to translation invariance:
           :   -0.0012470467    0.0006162639    0.0010881124

Norm of the cartesian gradient     ...    0.0474577190
RMS gradient                       ...    0.0066454099
MAX gradient                       ...    0.0291645260

-------
TIMINGS
-------

Total SCF gradient time            ...        4.264 sec

One electron gradient       ....       0.068 sec  (  1.6%)
Prescreening matrices       ....       0.093 sec  (  2.2%)
RI-J Coulomb gradient       ....       0.693 sec  ( 16.3%)
COSX gradient               ....       1.826 sec  ( 42.8%)
XC gradient                 ....       1.121 sec  ( 26.3%)
------------------------------------------------------------------------------
                         ORCA GEOMETRY RELAXATION STEP
------------------------------------------------------------------------------

Reading the OPT-File                    .... done
Getting information on internals        .... done
Copying old internal coords+grads       .... done
Making the new internal coordinates     .... (new redundants).... done
Validating the new internal coordinates .... (new redundants).... done
Calculating the B-matrix                .... done
Calculating the G,G- and P matrices     .... done
Transforming gradient to internals      .... done
Projecting the internal gradient        .... done
Number of atoms                         ....  17
Number of internal coordinates          ....  71
Current Energy                          ....  -397.136741469 Eh
Current gradient norm                   ....     0.047457719 Eh/bohr
Maximum allowed component of the step   ....  0.300
Current trust radius                    ....  0.300
Evaluating the initial hessian          ....  (Almloef) done
Projecting the Hessian                  .... done
Forming the augmented Hessian           .... done
Diagonalizing the augmented Hessian     .... done
Last element of RFO vector              ....  0.974544615
Lowest eigenvalues of augmented Hessian:
 -0.004445807  0.010861163  0.013480656  0.019553459  0.024362812
Length of the computed step             ....  0.230049655
The final length of the internal step   ....  0.230049655
Converting the step to cartesian space:
 Initial RMS(Int)=    0.0273018711
Transforming coordinates:
 Iter   0:  RMS(Cart)=    0.0576112402 RMS(Int)=    0.0273346090
 Iter   1:  RMS(Cart)=    0.0006288779 RMS(Int)=    0.0005139091
 Iter   2:  RMS(Cart)=    0.0001149316 RMS(Int)=    0.0000758126
 Iter   3:  RMS(Cart)=    0.0000557215 RMS(Int)=    0.0000342420
 Iter   4:  RMS(Cart)=    0.0000275788 RMS(Int)=    0.0000167765
 Iter   5:  RMS(Cart)=    0.0000136133 RMS(Int)=    0.0000082919
 Iter   6:  RMS(Cart)=    0.0000067289 RMS(Int)=    0.0000040970
 Iter   7:  RMS(Cart)=    0.0000033251 RMS(Int)=    0.0000020247
 Iter   8:  RMS(Cart)=    0.0000016432 RMS(Int)=    0.0000010005
 Iter   9:  RMS(Cart)=    0.0000008120 RMS(Int)=    0.0000004944
 Iter  10:  RMS(Cart)=    0.0000004013 RMS(Int)=    0.0000002443
 Iter  11:  RMS(Cart)=    0.0000001983 RMS(Int)=    0.0000001207
 Iter  12:  RMS(Cart)=    0.0000000980 RMS(Int)=    0.0000000597
done
Storing new coordinates                 .... done

                                .--------------------.
          ----------------------|Geometry convergence|-------------------------
          Item                value                   Tolerance       Converged
          ---------------------------------------------------------------------
          RMS gradient        0.0046795403            0.0020000000      NO
          MAX gradient        0.0203655314            0.0030000000      NO
          RMS step            0.0273018711            0.0200000000      NO
          MAX step            0.1434269367            0.0300000000      NO
          ........................................................
          Max(Bonds)      0.0759      Max(Angles)    1.35
          Max(Dihed)        3.53      Max(Improp)    0.00
          ---------------------------------------------------------------------

The optimization has not yet converged - more geometry cycles are needed


    ---------------------------------------------------------------------------
                         Redundant Internal Coordinates
                            (Angstroem and degrees)

        Definition                    Value    dE/dq     Step     New-Value
    ----------------------------------------------------------------------------
     1. B(N   1,C   0)                1.3487 -0.011564  0.0093    1.3580   
     2. B(N   2,C   0)                1.2860 -0.009414  0.0056    1.2916   
     3. B(C   4,N   3)                1.3531  0.001767 -0.0013    1.3518   
     4. B(O   5,C   4)                1.2272 -0.020366  0.0110    1.2382   
     5. B(C   6,C   4)                1.4828 -0.009053  0.0107    1.4935   
     6. B(C   7,C   6)                1.3393  0.002286 -0.0016    1.3377   
     7. B(H   8,C   0)                1.1036 -0.001849  0.0028    1.1064   
     8. B(H   9,N   1)                1.0117 -0.002684  0.0033    1.0150   
     9. B(H  10,N   1)                1.0267 -0.008548  0.0118    1.0385   
    10. B(H  10,O   5)                1.7953 -0.002116  0.0481    1.8434   
    11. B(H  11,N   2)                1.0282  0.004691 -0.0061    1.0222   
    12. B(H  12,N   3)                1.0052 -0.004323  0.0051    1.0103   
    13. B(H  13,N   3)                1.0268 -0.014885  0.0183    1.0451   
    14. B(H  13,N   2)                1.7969 -0.004754  0.0759    1.8728   
    15. B(H  14,C   6)                1.0866 -0.004931  0.0071    1.0937   
    16. B(H  15,C   7)                1.0824 -0.007530  0.0106    1.0930   
    17. B(H  16,C   7)                1.0861 -0.005158  0.0074    1.0934   
    18. A(N   1,C   0,N   2)          123.76  0.001558   -0.33    123.43   
    19. A(N   1,C   0,H   8)          113.95 -0.000761    0.15    114.11   
    20. A(N   2,C   0,H   8)          122.29 -0.000782    0.16    122.44   
    21. A(H   9,N   1,H  10)          111.36 -0.003489    1.21    112.57   
    22. A(C   0,N   1,H   9)          117.65  0.004426   -0.66    116.98   
    23. A(C   0,N   1,H  10)          114.89 -0.002015    0.77    115.66   
    24. A(C   0,N   2,H  11)          108.43 -0.002507    0.68    109.12   
    25. A(H  11,N   2,H  13)          134.72  0.003551   -0.64    134.08   
    26. A(C   0,N   2,H  13)          116.22 -0.001192    0.14    116.36   
    27. A(H  12,N   3,H  13)          116.44 -0.004545    0.77    117.21   
    28. A(C   4,N   3,H  13)          118.31 -0.003589    0.54    118.85   
    29. A(C   4,N   3,H  12)          125.19  0.008165   -1.35    123.85   
    30. A(N   3,C   4,C   6)          117.61 -0.007155    0.86    118.47   
    31. A(N   3,C   4,O   5)          121.87 -0.000974    0.30    122.17   
    32. A(O   5,C   4,C   6)          120.53  0.008129   -1.16    119.37   
    33. A(C   4,O   5,H  10)          118.23  0.002111    0.21    118.44   
    34. A(C   4,C   6,H  14)          113.25  0.001670   -0.26    112.98   
    35. A(C   4,C   6,C   7)          127.05 -0.001166    0.17    127.22   
    36. A(C   7,C   6,H  14)          119.70 -0.000503    0.09    119.80   
    37. A(H  15,C   7,H  16)          116.67  0.000529   -0.09    116.58   
    38. A(C   6,C   7,H  16)          119.78 -0.002108    0.33    120.11   
    39. A(C   6,C   7,H  15)          123.55  0.001579   -0.24    123.31   
    40. A(N   1,H  10,O   5)          173.30 -0.001084    0.84    174.14   
    41. L(N   2,H  13,N   3,C   4, 2) 175.90 -0.000584    0.17    176.07   
    42. L(N   2,H  13,N   3,C   4, 1) 180.37  0.003623   -1.19    179.17   
    43. D(H   9,N   1,C   0,H   8)     31.87  0.002736   -1.41     30.46   
    44. D(H   9,N   1,C   0,N   2)   -148.80  0.004078   -3.33   -152.13   
    45. D(H  10,N   1,C   0,N   2)    -14.67  0.001176   -1.22    -15.89   
    46. D(H  10,N   1,C   0,H   8)    166.00 -0.000165    0.70    166.70   
    47. D(H  11,N   2,C   0,H   8)      0.15  0.000753    0.45      0.60   
    48. D(H  13,N   2,C   0,N   1)      8.58 -0.000120    1.49     10.07   
    49. D(H  11,N   2,C   0,N   1)   -179.14 -0.000699    2.54   -176.60   
    50. D(H  13,N   2,C   0,H   8)   -172.14  0.001331   -0.59   -172.73   
    51. D(H  12,N   3,N   2,H  11)     19.25  0.001196   -2.47     16.78   
    52. D(C   4,N   3,N   2,H  11)   -161.70  0.002113   -3.53   -165.23   
    53. D(H  12,N   3,N   2,C   0)   -172.25 -0.000006   -1.05   -173.30   
    54. D(C   4,N   3,N   2,C   0)      6.81  0.000911   -2.11      4.69   
    55. D(C   6,C   4,N   3,H  12)     -1.95  0.000286   -0.07     -2.01   
    56. D(O   5,C   4,N   3,H  13)      0.79  0.000059    0.89      1.68   
    57. D(C   6,C   4,N   3,H  13)   -179.20 -0.000346    1.07   -178.13   
    58. D(O   5,C   4,N   3,H  12)    178.05  0.000692   -0.25    177.80   
    59. D(H  10,O   5,C   4,C   6)    168.32 -0.000182    0.28    168.60   
    60. D(H  10,O   5,C   4,N   3)    -11.67 -0.000598    0.47    -11.20   
    61. D(H  14,C   6,C   4,O   5)     -0.09  0.000114   -0.88     -0.97   
    62. D(H  14,C   6,C   4,N   3)    179.91  0.000513   -1.06    178.85   
    63. D(C   7,C   6,C   4,O   5)    179.98  0.000062   -0.78    179.20   
    64. D(C   7,C   6,C   4,N   3)     -0.02  0.000461   -0.96     -0.99   
    65. D(H  16,C   7,C   6,H  14)      0.02  0.000145   -0.17     -0.16   
    66. D(H  16,C   7,C   6,C   4)    179.94  0.000201   -0.27    179.67   
    67. D(H  15,C   7,C   6,H  14)    179.98  0.000108   -0.12    179.85   
    68. D(H  15,C   7,C   6,C   4)     -0.10  0.000164   -0.22     -0.32   
    69. D(N   1,H  10,O   5,C   4)    128.06  0.000823   -0.03    128.03   
    70. D(O   5,H  10,N   1,H   9)     32.48  0.000551    0.61     33.09   
    71. D(O   5,H  10,N   1,C   0)   -104.46 -0.000260   -0.53   -105.00   
    ----------------------------------------------------------------------------

         *************************************************************
         *                GEOMETRY OPTIMIZATION CYCLE   2            *
         *************************************************************
---------------------------------
CARTESIAN COORDINATES (ANGSTROEM)
---------------------------------
  C      1.693932   -0.739307    0.057324
  N      1.020499   -1.896080   -0.171843
  N      1.133920    0.424475    0.044135
  N     -1.782723    0.446924   -0.016606
  C     -2.435514   -0.733739    0.068463
  O     -1.836290   -1.812504    0.169932
  C     -3.928565   -0.725756    0.033777
  C     -4.730211    0.341384   -0.056403
  H      2.781073   -0.872927    0.213647
  H      1.387901   -2.736428    0.262892
  H     -0.014181   -1.834272   -0.108419
  H      1.848592    1.141316    0.186316
  H     -2.244410    1.338128   -0.131983
  H     -0.737604    0.445945   -0.022354
  H     -4.362326   -1.728248    0.088467
  H     -4.359065    1.367971   -0.111886
  H     -5.815729    0.211818   -0.077959

----------------------------
CARTESIAN COORDINATES (A.U.)
----------------------------
  NO LB      ZA    FRAG     MASS         X           Y           Z
   0 C     6.0000    0    12.011    3.201067   -1.397087    0.108327
   1 N     7.0000    0    14.007    1.928464   -3.583072   -0.324735
   2 N     7.0000    0    14.007    2.142799    0.802141    0.083402
   3 N     7.0000    0    14.007   -3.368858    0.844563   -0.031381
   4 C     6.0000    0    12.011   -4.602454   -1.386566    0.129377
   5 O     8.0000    0    15.999   -3.470084   -3.425136    0.321125
   6 C     6.0000    0    12.011   -7.423911   -1.371480    0.063830
   7 C     6.0000    0    12.011   -8.938804    0.645123   -0.106585
   8 H     1.0000    0     1.008    5.255467   -1.649593    0.403734
   9 H     1.0000    0     1.008    2.622752   -5.171100    0.496793
  10 H     1.0000    0     1.008   -0.026798   -3.466272   -0.204883
  11 H     1.0000    0     1.008    3.493333    2.156775    0.352086
  12 H     1.0000    0     1.008   -4.241321    2.528695   -0.249412
  13 H     1.0000    0     1.008   -1.393870    0.842715   -0.042243
  14 H     1.0000    0     1.008   -8.243602   -3.265915    0.167179
  15 H     1.0000    0     1.008   -8.237440    2.585090   -0.211434
  16 H     1.0000    0     1.008  -10.990135    0.400279   -0.147321

--------------------------------
INTERNAL COORDINATES (ANGSTROEM)
--------------------------------
 C      0   0   0     0.000000000000     0.00000000     0.00000000
 N      1   0   0     1.357996153619     0.00000000     0.00000000
 N      1   2   0     1.291577868133   123.42188562     0.00000000
 N      3   1   2     2.917362060606   116.14384953    11.01833702
 C      4   3   1     1.351790297381   118.34359955     4.68048415
 O      5   4   3     1.238183787526   122.16813562     0.00000000
 C      5   4   3     1.493475314039   118.46622961   180.16889850
 C      7   5   4     1.337743707933   127.22252473   359.01347602
 H      1   2   3     1.106421453125   114.09365953   182.58881479
 H      2   1   3     1.014969171399   116.96734151   207.87366317
 H      2   1   3     1.038463407374   115.66374996   344.11084057
 H      3   1   2     1.022171053057   109.10687066   183.38959033
 H      4   3   1     1.010302720396   117.77703853   186.71810493
 H      4   3   1     1.045135249486     1.55706089   255.52737515
 H      7   5   4     1.093677162872   112.98153865   178.84990985
 H      8   7   5     1.093026383867   123.30994339   359.67825584
 H      8   7   5     1.093435152403   120.11369087   179.67059089

---------------------------
INTERNAL COORDINATES (A.U.)
---------------------------
 C      0   0   0     0.000000000000     0.00000000     0.00000000
 N      1   0   0     2.566240821258     0.00000000     0.00000000
 N      1   2   0     2.440728451406   123.42188562     0.00000000
 N      3   1   2     5.513015328037   116.14384953    11.01833702
 C      4   3   1     2.554513452542   118.34359955     4.68048415
 O      5   4   3     2.339828261885   122.16813562     0.00000000
 C      5   4   3     2.822259331305   118.46622961   180.16889850
 C      7   5   4     2.527969245370   127.22252473   359.01347602
 H      1   2   3     2.090833535102   114.09365953   182.58881479
 H      2   1   3     1.918013768317   116.96734151   207.87366317
 H      2   1   3     1.962411440036   115.66374996   344.11084057
 H      3   1   2     1.931623352299   109.10687066   183.38959033
 H      4   3   1     1.909195453904   117.77703853   186.71810493
 H      4   3   1     1.975019394435     1.55706089   255.52737515
 H      7   5   4     2.066750316753   112.98153865   178.84990985
 H      8   7   5     2.065520522659   123.30994339   359.67825584
 H      8   7   5     2.066292983244   120.11369087   179.67059089



           ************************************************************
           *        Program running with 6 parallel MPI-processes     *
           *              working on a common directory               *
           ************************************************************
 One Electron integrals                  ... done
 Pre-screening matrix                    ... done


           ************************************************************
           *        Program running with 6 parallel MPI-processes     *
           *              working on a common directory               *
           ************************************************************

Diagonalization of the overlap matrix:
Smallest eigenvalue                        ... 2.145e-03
Time for diagonalization                   ...    0.006 sec
Threshold for overlap eigenvalues          ... 1.000e-08
Number of eigenvalues below threshold      ... 0
Time for construction of square roots      ...    0.003 sec
Total time needed                          ...    0.009 sec

-------------------
DFT GRID GENERATION
-------------------

General Integration Accuracy     IntAcc      ...  4.340
Radial Grid Type                 RadialGrid  ... Gauss-Chebyshev
Angular Grid (max. acc.)         AngularGrid ... Lebedev-110
Angular grid pruning method      GridPruning ... 3 (G Style)
Weight generation scheme         WeightScheme... Becke
Basis function cutoff            BFCut       ...    1.0000e-11
Integration weight cutoff        WCut        ...    1.0000e-14
Grids for H and He will be reduced by one unit

# of grid points (after initial pruning)     ...  20592 (   0.0 sec)
# of grid points (after weights+screening)   ...  19285 (   0.0 sec)
nearest neighbour list constructed           ...    0.0 sec
Grid point re-assignment to atoms done       ...    0.0 sec
Grid point division into batches done        ...    0.0 sec
Reduced shell lists constructed in    0.1 sec

Total number of grid points                  ...    19285
Total number of batches                      ...      309
Average number of points per batch           ...       62
Average number of grid points per atom       ...     1134
Average number of shells per batch           ...    53.91 (71.87%)
Average number of basis functions per batch  ...   109.04 (69.45%)
Average number of large shells per batch     ...    39.21 (72.73%)
Average number of large basis fcns per batch ...    79.02 (72.47%)
Maximum spatial batch extension              ...   9.52,  7.78, 21.07 au
Average spatial batch extension              ...   0.33,  0.34,  0.55 au

Time for grid setup =    0.096 sec

--------------------
COSX GRID GENERATION
--------------------

General Integration Accuracy     IntAcc      ...  3.340
Radial Grid Type                 RadialGrid  ... Gauss-Chebyshev
Angular Grid (max. acc.)         AngularGrid ... Lebedev-50
Angular grid pruning method      GridPruning ... 3 (G Style)
Weight generation scheme         WeightScheme... Becke
Basis function cutoff            BFCut       ...    1.0000e-11
Integration weight cutoff        WCut        ...    1.0000e-14
Grids for H and He will be reduced by one unit

# of grid points (after initial pruning)     ...   7478 (   0.0 sec)
# of grid points (after weights+screening)   ...   7057 (   0.0 sec)
nearest neighbour list constructed           ...    0.0 sec
Grid point re-assignment to atoms done       ...    0.0 sec
Grid point division into batches done        ...    0.0 sec
Reduced shell lists constructed in    0.0 sec

Total number of grid points                  ...     7057
Total number of batches                      ...      116
Average number of points per batch           ...       60
Average number of grid points per atom       ...      415
Average number of shells per batch           ...    54.10 (72.13%)
Average number of basis functions per batch  ...   110.00 (70.06%)
Average number of large shells per batch     ...    39.52 (73.06%)
Average number of large basis fcns per batch ...    79.52 (72.29%)
Maximum spatial batch extension              ...   4.51,  8.19, 16.04 au
Average spatial batch extension              ...   0.40,  0.47,  0.77 au

Overlap Fitting                  UseSFitting ... on
Constructing numerical overlap ... done (      0.0 sec)
Inverting numerical overlap    ... done (      0.0 sec)
Obtaining analytic overlap     ... done (      0.0 sec)
Final contraction and storage  ... done (      0.0 sec)


General Integration Accuracy     IntAcc      ...  3.670
Radial Grid Type                 RadialGrid  ... Gauss-Chebyshev
Angular Grid (max. acc.)         AngularGrid ... Lebedev-50
Angular grid pruning method      GridPruning ... 3 (G Style)
Weight generation scheme         WeightScheme... Becke
Basis function cutoff            BFCut       ...    1.0000e-11
Integration weight cutoff        WCut        ...    1.0000e-14
Grids for H and He will be reduced by one unit

# of grid points (after initial pruning)     ...   9596 (   0.0 sec)
# of grid points (after weights+screening)   ...   9028 (   0.0 sec)
nearest neighbour list constructed           ...    0.0 sec
Grid point re-assignment to atoms done       ...    0.0 sec
Grid point division into batches done        ...    0.0 sec
Reduced shell lists constructed in    0.0 sec

Total number of grid points                  ...     9028
Total number of batches                      ...      150
Average number of points per batch           ...       60
Average number of grid points per atom       ...      531
Average number of shells per batch           ...    54.27 (72.36%)
Average number of basis functions per batch  ...   110.04 (70.09%)
Average number of large shells per batch     ...    39.42 (72.64%)
Average number of large basis fcns per batch ...    79.35 (72.11%)
Maximum spatial batch extension              ...   4.49,  6.33, 17.36 au
Average spatial batch extension              ...   0.34,  0.38,  0.70 au

Overlap Fitting                  UseSFitting ... on
Constructing numerical overlap ... done (      0.0 sec)
Inverting numerical overlap    ... done (      0.0 sec)
Obtaining analytic overlap     ... done (      0.0 sec)
Final contraction and storage  ... done (      0.0 sec)


General Integration Accuracy     IntAcc      ...  4.010
Radial Grid Type                 RadialGrid  ... Gauss-Chebyshev
Angular Grid (max. acc.)         AngularGrid ... Lebedev-110
Angular grid pruning method      GridPruning ... 3 (G Style)
Weight generation scheme         WeightScheme... Becke
Basis function cutoff            BFCut       ...    1.0000e-11
Integration weight cutoff        WCut        ...    1.0000e-14
Grids for H and He will be reduced by one unit

# of grid points (after initial pruning)     ...  17710 (   0.0 sec)
# of grid points (after weights+screening)   ...  16609 (   0.0 sec)
nearest neighbour list constructed           ...    0.0 sec
Grid point re-assignment to atoms done       ...    0.0 sec
Grid point division into batches done        ...    0.0 sec
Reduced shell lists constructed in    0.1 sec

Total number of grid points                  ...    16609
Total number of batches                      ...      267
Average number of points per batch           ...       62
Average number of grid points per atom       ...      977
Average number of shells per batch           ...    53.91 (71.88%)
Average number of basis functions per batch  ...   109.26 (69.59%)
Average number of large shells per batch     ...    39.54 (73.35%)
Average number of large basis fcns per batch ...    79.41 (72.68%)
Maximum spatial batch extension              ...   9.45,  7.39, 19.29 au
Average spatial batch extension              ...   0.34,  0.35,  0.57 au

Overlap Fitting                  UseSFitting ... on
Constructing numerical overlap ... done (      0.0 sec)
Inverting numerical overlap    ... done (      0.0 sec)
Obtaining analytic overlap     ... done (      0.0 sec)
Final contraction and storage  ... done (      0.0 sec)

Time for X-Grid setup             =    0.312 sec
--------------
SCF ITERATIONS
--------------
ITER       Energy         Delta-E        Max-DP      RMS-DP      [F,P]     Damp
               ***  Starting incremental Fock matrix formation  ***
  0   -397.1154362270   0.000000000000 0.00373943  0.00012764  0.0128556 0.7000
                      *** Initiating the SOSCF procedure ***
                      *** Re-Reading the Fockian *** 
                      *** Removing any level shift *** 
ITER      Energy       Delta-E        Grad      Rot      Max-DP    RMS-DP
  1   -397.11585776  -0.0004215337  0.001152  0.001152  0.011349  0.000375
               *** Restarting incremental Fock matrix formation ***
  2   -397.11694957  -0.0010918118  0.000903  0.002736  0.004701  0.000116
  3   -397.11694855   0.0000010185  0.001815  0.002832  0.003885  0.000075
  4   -397.11698857  -0.0000400196  0.000334  0.000534  0.000818  0.000038
  5   -397.11699085  -0.0000022805  0.000257  0.000232  0.000522  0.000017
  6   -397.11699330  -0.0000024446  0.000068  0.000205  0.000298  0.000007
  7   -397.11699328   0.0000000162  0.000108  0.000169  0.000187  0.000004
  8   -397.11699343  -0.0000001512  0.000037  0.000074  0.000085  0.000002
  9   -397.11699343   0.0000000006  0.000025  0.000034  0.000062  0.000001
 10   -397.11699345  -0.0000000192  0.000005  0.000008  0.000017  0.000001
 11   -397.11699345   0.0000000017  0.000004  0.000005  0.000009  0.000000
                  ***Gradient check signals convergence***
              ***Rediagonalizing the Fockian in SOSCF/NRSCF***

               *****************************************************
               *                     SUCCESS                       *
               *           SCF CONVERGED AFTER  12 CYCLES          *
               *****************************************************

Setting up the final grid:

General Integration Accuracy     IntAcc      ...  4.670
Radial Grid Type                 RadialGrid  ... Gauss-Chebyshev
Angular Grid (max. acc.)         AngularGrid ... Lebedev-302
Angular grid pruning method      GridPruning ... 3 (G Style)
Weight generation scheme         WeightScheme... Becke
Basis function cutoff            BFCut       ...    1.0000e-11
Integration weight cutoff        WCut        ...    1.0000e-14
Grids for H and He will be reduced by one unit

# of grid points (after initial pruning)     ...  80242 (   0.0 sec)
# of grid points (after weights+screening)   ...  74135 (   0.1 sec)
nearest neighbour list constructed           ...    0.0 sec
Grid point re-assignment to atoms done       ...    0.0 sec
Grid point division into batches done        ...    0.3 sec
Reduced shell lists constructed in    0.5 sec

Total number of grid points                  ...    74135
Total number of batches                      ...     1167
Average number of points per batch           ...       63
Average number of grid points per atom       ...     4361
Average number of shells per batch           ...    51.31 (68.41%)
Average number of basis functions per batch  ...   103.11 (65.68%)
[...]
Reduced shell lists constructed in    0.0 sec

Total number of grid points                  ...     9027
Total number of batches                      ...      150
Average number of points per batch           ...       60
Average number of grid points per atom       ...      531
Average number of shells per batch           ...    54.62 (72.82%)
Average number of basis functions per batch  ...   110.85 (70.60%)
Average number of large shells per batch     ...    39.62 (72.54%)
Average number of large basis fcns per batch ...    79.92 (72.10%)
Maximum spatial batch extension              ...   4.79,  6.06, 17.59 au
Average spatial batch extension              ...   0.34,  0.37,  0.71 au

Overlap Fitting                  UseSFitting ... on
Constructing numerical overlap ... done (      0.0 sec)
Inverting numerical overlap    ... done (      0.0 sec)
Obtaining analytic overlap     ... done (      0.0 sec)
Final contraction and storage  ... done (      0.0 sec)


General Integration Accuracy     IntAcc      ...  4.010
Radial Grid Type                 RadialGrid  ... Gauss-Chebyshev
Angular Grid (max. acc.)         AngularGrid ... Lebedev-110
Angular grid pruning method      GridPruning ... 3 (G Style)
Weight generation scheme         WeightScheme... Becke
Basis function cutoff            BFCut       ...    1.0000e-11
Integration weight cutoff        WCut        ...    1.0000e-14
Grids for H and He will be reduced by one unit

# of grid points (after initial pruning)     ...  17710 (   0.0 sec)
# of grid points (after weights+screening)   ...  16612 (   0.0 sec)
nearest neighbour list constructed           ...    0.0 sec
Grid point re-assignment to atoms done       ...    0.0 sec
Grid point division into batches done        ...    0.0 sec
Reduced shell lists constructed in    0.0 sec

Total number of grid points                  ...    16612
Total number of batches                      ...      266
Average number of points per batch           ...       62
Average number of grid points per atom       ...      977
Average number of shells per batch           ...    54.35 (72.46%)
Average number of basis functions per batch  ...   110.13 (70.15%)
Average number of large shells per batch     ...    40.00 (73.60%)
Average number of large basis fcns per batch ...    80.78 (73.35%)
Maximum spatial batch extension              ...   5.98,  7.25, 17.44 au
Average spatial batch extension              ...   0.33,  0.35,  0.58 au

Overlap Fitting                  UseSFitting ... on
Constructing numerical overlap ... done (      0.0 sec)
Inverting numerical overlap    ... done (      0.0 sec)
Obtaining analytic overlap     ... done (      0.0 sec)
Final contraction and storage  ... done (      0.0 sec)

Time for X-Grid setup             =    0.308 sec
--------------
SCF ITERATIONS
--------------
ITER       Energy         Delta-E        Max-DP      RMS-DP      [F,P]     Damp
               ***  Starting incremental Fock matrix formation  ***
                      *** Initiating the SOSCF procedure ***
                      *** Re-Reading the Fockian *** 
                      *** Removing any level shift *** 
ITER      Energy       Delta-E        Grad      Rot      Max-DP    RMS-DP
  0   -397.11806144 -397.1180614410  0.000890  0.000890  0.003883  0.000092
               *** Restarting incremental Fock matrix formation ***
  1   -397.11812675  -0.0000653055  0.000360  0.001079  0.001094  0.000039
  2   -397.11813418  -0.0000074347  0.000249  0.000886  0.001236  0.000030
  3   -397.11813197   0.0000022161  0.000415  0.000564  0.000782  0.000020
  4   -397.11813530  -0.0000033313  0.000010  0.000037  0.000051  0.000001
  5   -397.11813530  -0.0000000012  0.000022  0.000034  0.000036  0.000001
  6   -397.11813530  -0.0000000024  0.000006  0.000013  0.000016  0.000000
  7   -397.11813530  -0.0000000010  0.000006  0.000007  0.000010  0.000000
                  ***Gradient check signals convergence***
              ***Rediagonalizing the Fockian in SOSCF/NRSCF***

               *****************************************************
               *                     SUCCESS                       *
               *           SCF CONVERGED AFTER   8 CYCLES          *
               *****************************************************

Setting up the final grid:

General Integration Accuracy     IntAcc      ...  4.670
Radial Grid Type                 RadialGrid  ... Gauss-Chebyshev
Angular Grid (max. acc.)         AngularGrid ... Lebedev-302
Angular grid pruning method      GridPruning ... 3 (G Style)
Weight generation scheme         WeightScheme... Becke
Basis function cutoff            BFCut       ...    1.0000e-11
Integration weight cutoff        WCut        ...    1.0000e-14
Grids for H and He will be reduced by one unit

# of grid points (after initial pruning)     ...  80242 (   0.0 sec)
# of grid points (after weights+screening)   ...  74116 (   0.1 sec)
nearest neighbour list constructed           ...    0.0 sec
Grid point re-assignment to atoms done       ...    0.0 sec
Grid point division into batches done        ...    0.3 sec
Reduced shell lists constructed in    0.5 sec

Total number of grid points                  ...    74116
Total number of batches                      ...     1166
Average number of points per batch           ...       63
Average number of grid points per atom       ...     4360
Average number of shells per batch           ...    51.58 (68.78%)
Average number of basis functions per batch  ...   103.89 (66.17%)
Average number of large shells per batch     ...    36.77 (71.28%)
Average number of large basis fcns per batch ...    73.79 (71.02%)
Maximum spatial batch extension              ...   7.50, 10.66, 14.90 au
Average spatial batch extension              ...   0.22,  0.24,  0.31 au

Final grid set up in    0.6 sec
Final integration                            ... done (   0.3 sec)
Change in XC energy                          ...    -0.000708916
Integrated number of electrons               ...    61.999805220
Previous integrated no of electrons          ...    62.001140162
Old exchange energy                            =    -10.390745663 Eh
New exchange energy                            =    -10.390496271 Eh
Exchange energy change after final integration =      0.000249392 Eh
Total energy after final integration           =   -397.118594826 Eh
Final COS-X integration done in                =     1.791 sec

----------------
TOTAL SCF ENERGY
----------------

Total Energy       :         -397.11859483 Eh          -10806.14634 eV

Components:
Nuclear Repulsion  :          351.52543390 Eh            9565.49336 eV
Electronic Energy  :         -748.64402873 Eh          -20371.63970 eV
One Electron Energy:        -1236.21773873 Eh          -33639.19485 eV
Two Electron Energy:          487.57371000 Eh           13267.55516 eV

Virial components:
Potential Energy   :         -791.75412648 Eh          -21544.72509 eV
Kinetic Energy     :          394.63553165 Eh           10738.57876 eV
Virial Ratio       :            2.00629204


DFT components:
N(Alpha)           :       30.999902610040 electrons
N(Beta)            :       30.999902610040 electrons
N(Total)           :       61.999805220079 electrons
E(X)               :      -41.311388123578 Eh       
E(C)               :       -2.470156868212 Eh       
E(XC)              :      -43.781544991790 Eh       

---------------
SCF CONVERGENCE
---------------

  Last Energy change         ...   -1.3811e-09  Tolerance :   1.0000e-08
  Last MAX-Density change    ...    2.6916e-13  Tolerance :   1.0000e-07
  Last RMS-Density change    ...    1.7591e-15  Tolerance :   5.0000e-09
  Last Orbital Gradient      ...    1.1560e-06  Tolerance :   1.0000e-05
  Last Orbital Rotation      ...    1.8053e-06  Tolerance :   1.0000e-05

             **** THE GBW FILE WAS UPDATED (AT-v/e/frag_04_c00001.gbw) ****
             **** DENSITY FILE WAS UPDATED (AT-v/e/frag_04_c00001.scfp.tmp) ****
             **** ENERGY FILE WAS UPDATED (AT-v/e/frag_04_c00001.en.tmp) ****
----------------
ORBITAL ENERGIES
----------------

  NO   OCC          E(Eh)            E(eV) 
   0   2.0000     -19.096399      -519.6394 
   1   2.0000     -14.323421      -389.7601 
   2   2.0000     -14.321114      -389.6973 
   3   2.0000     -14.288964      -388.8225 
   4   2.0000     -10.278201      -279.6841 
   5   2.0000     -10.250504      -278.9304 
   6   2.0000     -10.201869      -277.6070 
   7   2.0000     -10.196343      -277.4566 
   8   2.0000      -1.018171       -27.7058 
   9   2.0000      -0.927792       -25.2465 
  10   2.0000      -0.884890       -24.0791 
  11   2.0000      -0.836143       -22.7526 
  12   2.0000      -0.776797       -21.1377 
  13   2.0000      -0.631226       -17.1765 
  14   2.0000      -0.592280       -16.1168 
  15   2.0000      -0.556469       -15.1423 
  16   2.0000      -0.538019       -14.6403 
  17   2.0000      -0.520554       -14.1650 
  18   2.0000      -0.474703       -12.9173 
  19   2.0000      -0.450123       -12.2485 
  20   2.0000      -0.442508       -12.0413 
  21   2.0000      -0.430806       -11.7228 
  22   2.0000      -0.399372       -10.8675 
  23   2.0000      -0.394807       -10.7432 
  24   2.0000      -0.369204       -10.0465 
  25   2.0000      -0.359500        -9.7825 
  26   2.0000      -0.277184        -7.5426 
  27   2.0000      -0.271857        -7.3976 
  28   2.0000      -0.251856        -6.8534 
  29   2.0000      -0.243934        -6.6378 
  30   2.0000      -0.227015        -6.1774 
  31   0.0000      -0.033425        -0.9095 
  32   0.0000       0.039126         1.0647 
  33   0.0000       0.058104         1.5811 
  34   0.0000       0.061789         1.6814 
  35   0.0000       0.090074         2.4510 
  36   0.0000       0.102130         2.7791 
  37   0.0000       0.102968         2.8019 
  38   0.0000       0.126063         3.4304 
  39   0.0000       0.141441         3.8488 
  40   0.0000       0.172512         4.6943 
  41   0.0000       0.214654         5.8410 
  42   0.0000       0.231216         6.2917 
  43   0.0000       0.276202         7.5158 
  44   0.0000       0.306981         8.3534 
  45   0.0000       0.314869         8.5680 
  46   0.0000       0.346316         9.4237 
  47   0.0000       0.356481         9.7003 
  48   0.0000       0.404680        11.0119 
  49   0.0000       0.448463        12.2033 
  50   0.0000       0.456842        12.4313 
  51   0.0000       0.467088        12.7101 
  52   0.0000       0.481235        13.0951 
  53   0.0000       0.492037        13.3890 
  54   0.0000       0.495402        13.4806 
  55   0.0000       0.510701        13.8969 
  56   0.0000       0.543806        14.7977 
  57   0.0000       0.547171        14.8893 
  58   0.0000       0.548976        14.9384 
  59   0.0000       0.563320        15.3287 
  60   0.0000       0.584319        15.9001 
  61   0.0000       0.595724        16.2105 
  62   0.0000       0.624397        16.9907 
  63   0.0000       0.649710        17.6795 
  64   0.0000       0.660852        17.9827 
  65   0.0000       0.693441        18.8695 
  66   0.0000       0.714178        19.4338 
  67   0.0000       0.740181        20.1413 
  68   0.0000       0.748045        20.3553 
  69   0.0000       0.756768        20.5927 
  70   0.0000       0.774294        21.0696 
  71   0.0000       0.782879        21.3032 
  72   0.0000       0.796413        21.6715 
  73   0.0000       0.827278        22.5114 
  74   0.0000       0.859369        23.3846 
  75   0.0000       0.893123        24.3031 
  76   0.0000       0.914639        24.8886 
  77   0.0000       0.949631        25.8408 
  78   0.0000       0.957497        26.0548 
  79   0.0000       0.975079        26.5332 
  80   0.0000       0.990598        26.9555 
  81   0.0000       0.997618        27.1466 
  82   0.0000       1.022793        27.8316 
  83   0.0000       1.033448        28.1215 
  84   0.0000       1.083470        29.4827 
  85   0.0000       1.096838        29.8465 
  86   0.0000       1.116982        30.3946 
  87   0.0000       1.139409        31.0049 
  88   0.0000       1.149949        31.2917 
  89   0.0000       1.187929        32.3252 
  90   0.0000       1.203188        32.7404 
  91   0.0000       1.253194        34.1012 
  92   0.0000       1.279511        34.8173 
  93   0.0000       1.317384        35.8478 
  94   0.0000       1.332658        36.2635 
  95   0.0000       1.341608        36.5070 
  96   0.0000       1.374217        37.3943 
  97   0.0000       1.380043        37.5529 
  98   0.0000       1.473497        40.0959 
  99   0.0000       1.484895        40.4060 
 100   0.0000       1.493047        40.6279 
 101   0.0000       1.495501        40.6946 
 102   0.0000       1.500527        40.8314 
 103   0.0000       1.539108        41.8813 
 104   0.0000       1.551377        42.2151 
 105   0.0000       1.586248        43.1640 
 106   0.0000       1.611183        43.8425 
 107   0.0000       1.627049        44.2743 
 108   0.0000       1.640230        44.6329 
 109   0.0000       1.677105        45.6363 
 110   0.0000       1.684495        45.8375 
 111   0.0000       1.708512        46.4910 
 112   0.0000       1.712888        46.6100 
 113   0.0000       1.732814        47.1523 
 114   0.0000       1.746908        47.5358 
 115   0.0000       1.788782        48.6752 
 116   0.0000       1.827706        49.7344 
 117   0.0000       1.857989        50.5584 
 118   0.0000       1.875287        51.0291 
 119   0.0000       1.917444        52.1763 
 120   0.0000       1.941357        52.8270 
 121   0.0000       1.993491        54.2456 
 122   0.0000       2.004610        54.5482 
 123   0.0000       2.023727        55.0684 
 124   0.0000       2.067214        56.2517 
 125   0.0000       2.092086        56.9285 
 126   0.0000       2.121605        57.7318 
 127   0.0000       2.147973        58.4493 
 128   0.0000       2.181381        59.3584 
 129   0.0000       2.205311        60.0096 
 130   0.0000       2.234938        60.8158 
 131   0.0000       2.256614        61.4056 
 132   0.0000       2.273764        61.8723 
 133   0.0000       2.311951        62.9114 
 134   0.0000       2.352286        64.0090 
 135   0.0000       2.367666        64.4275 
 136   0.0000       2.393088        65.1192 
 137   0.0000       2.419996        65.8514 
 138   0.0000       2.472141        67.2704 
 139   0.0000       2.522560        68.6423 
 140   0.0000       2.569150        69.9101 
 141   0.0000       2.594699        70.6054 
 142   0.0000       2.623887        71.3996 
 143   0.0000       2.650401        72.1211 
 144   0.0000       2.691964        73.2521 
 145   0.0000       2.718833        73.9832 
 146   0.0000       2.751519        74.8726 
 147   0.0000       2.800218        76.1978 
 148   0.0000       2.899216        78.8917 
 149   0.0000       2.926143        79.6244 
 150   0.0000       2.985145        81.2299 
 151   0.0000       3.054109        83.1065 
 152   0.0000       3.092968        84.1639 
 153   0.0000       3.296917        89.7137 
 154   0.0000       3.330372        90.6240 
 155   0.0000       3.458044        94.0982 
 156   0.0000       3.539081        96.3033 
-------
TIMINGS
-------

Total SCF time: 0 days 0 hours 0 min 13 sec 

Total time                  ....      13.002 sec
Sum of individual times     ....      12.941 sec  ( 99.5%)

Fock matrix formation       ....      11.803 sec  ( 90.8%)
  Split-RI-J                ....       2.145 sec  ( 18.2% of F)
  Chain of spheres X        ....       8.769 sec  ( 74.3% of F)
  COS-X 1 center corr.      ....       0.000 sec  (  0.0% of F)
  XC integration            ....       0.858 sec  (  7.3% of F)
    Basis function eval.    ....       0.327 sec  ( 38.1% of XC)
    Density eval.           ....       0.142 sec  ( 16.5% of XC)
    XC-Functional eval.     ....       0.042 sec  (  4.9% of XC)
    XC-Potential eval.      ....       0.253 sec  ( 29.4% of XC)
Diagonalization             ....       0.006 sec  (  0.0%)
Density matrix formation    ....       0.005 sec  (  0.0%)
Population analysis         ....       0.000 sec  (  0.0%)
Initial guess               ....       0.007 sec  (  0.1%)
Orbital Transformation      ....       0.000 sec  (  0.0%)
Orbital Orthonormalization  ....       0.003 sec  (  0.0%)
DIIS solution               ....       0.001 sec  (  0.0%)
SOSCF solution              ....       0.128 sec  (  1.0%)
Grid generation             ....       0.989 sec  (  7.6%)


-------------------------------------------------------------------------------
                          DFT DISPERSION CORRECTION                            
                                                                               
                              DFTD3 V3.1  Rev 1                                
                          USING Becke-Johnson damping                          
-------------------------------------------------------------------------------
The B3LYP functional is recognized
Active option DFTDOPT                   ...         4   

molecular C6(AA) [au] = 2682.980544 


            DFT-D V3
 parameters
 s6 scaling factor         :     1.0000 
 a1 scaling factor         :     0.3981 
 s8 scaling factor         :     1.9889 
 a2 scaling factor         :     4.4211 
 ad hoc parameters k1-k3   :    16.0000     1.3333    -4.0000 

 Edisp/kcal,au: -13.825638355808  -0.022032554810 
 E6   /kcal   :  -6.819192402 
 E8   /kcal   :  -7.006445954 
 % E8         :  50.677196767 

-------------------------   ----------------
Dispersion correction           -0.022032555
-------------------------   ----------------


-------------------------   --------------------
FINAL SINGLE POINT ENERGY      -397.140627380447
-------------------------   --------------------

                                *** OPTIMIZATION RUN DONE ***

                            ***************************************
                            *     ORCA property calculations      *
                            ***************************************

                                    ---------------------
                                    Active property flags
                                    ---------------------
   (+) Dipole Moment


------------------------------------------------------------------------------
                       ORCA ELECTRIC PROPERTIES CALCULATION
------------------------------------------------------------------------------

Dipole Moment Calculation                       ... on
Quadrupole Moment Calculation                   ... off
Polarizability Calculation                      ... off
GBWName                                         ... AT-v/e/frag_04_c00001.gbw
Electron density file                           ... AT-v/e/frag_04_c00001.scfp.tmp
The origin for moment calculation is the CENTER OF MASS  = (-2.444232, -1.118807  0.053831)

-------------
DIPOLE MOMENT
-------------
                                X             Y             Z
Electronic contribution:      0.11214      -1.88042       0.13307
Nuclear contribution   :      0.14530       2.46817      -0.02594
                        -----------------------------------------
Total Dipole Moment    :      0.25744       0.58774       0.10712
                        -----------------------------------------
Magnitude (a.u.)       :      0.65054
Magnitude (Debye)      :      1.65353


Timings for individual modules:

Sum of individual times         ...      150.842 sec (=   2.514 min)
GTO integral calculation        ...        5.719 sec (=   0.095 min)   3.8 %
SCF iterations                  ...      116.662 sec (=   1.944 min)  77.3 %
SCF Gradient evaluation         ...       27.897 sec (=   0.465 min)  18.5 %
Geometry relaxation             ...        0.563 sec (=   0.009 min)   0.4 %
                             ****ORCA TERMINATED NORMALLY****
TOTAL RUN TIME: 0 days 0 hours 2 minutes 32 seconds 752 msec
