
                                 *****************
                                 * O   R   C   A *
                                 *****************

           --- An Ab Initio, DFT and Semiempirical electronic structure package ---

                  #######################################################
                  #                        -***-                        #
                  #  Department of molecular theory and spectroscopy    #
                  #              Directorship: Frank Neese              #
                  # Max Planck Institute for Chemical Energy Conversion #
                  #                  D-45470 Muelheim/Ruhr              #
                  #                       Germany                       #
                  #                                                     #
                  #                  All rights reserved                #
                  #                        -***-                        #
                  #######################################################


                         Program Version 4.0.1.2 - RELEASE -


 With contributions from (in alphabetic order):
   Daniel Aravena         : Magnetic Properties
   Michael Atanasov       : Ab Initio Ligand Field Theory
   Ute Becker             : Parallelization
   Martin Brehm           : Molecular dynamics
   Dmytro Bykov           : SCF Hessian
   Vijay G. Chilkuri      : MRCI spin determinant printing
   Dipayan Datta          : RHF DLPNO-CCSD density
   Achintya Kumar Dutta   : EOM-CC, STEOM-CC
   Dmitry Ganyushin       : Spin-Orbit,Spin-Spin,Magnetic field MRCI
   Yang Guo               : DLPNO-NEVPT2, CIM, IAO-localization
   Andreas Hansen         : Spin unrestricted coupled pair/coupled cluster methods
   Lee Huntington         : MR-EOM, pCC
   Robert Izsak           : Overlap fitted RIJCOSX, COSX-SCS-MP3, EOM
   Christian Kollmar      : KDIIS, OOCD, Brueckner-CCSD(T), CCSD density
   Simone Kossmann        : Meta GGA functionals, TD-DFT gradient, OOMP2, MP2 Hessian
   Martin Krupicka        : AUTO-CI
   Dagmar Lenk            : GEPOL surface
   Dimitrios Liakos       : Extrapolation schemes; parallel MDCI
   Dimitrios Manganas     : ROCIS; embedding schemes
   Dimitrios Pantazis     : SARC Basis sets
   Taras Petrenko         : DFT Hessian,TD-DFT gradient, ASA, ECA, R-Raman, ABS, FL, XAS/XES, NRVS
   Peter Pinski           : DLPNO-MP2
   Christoph Reimann      : Effective Core Potentials
   Marius Retegan         : Local ZFS, SOC
   Christoph Riplinger    : Optimizer, TS searches, QM/MM, DLPNO-CCSD(T), (RO)-DLPNO pert. Triples
   Tobias Risthaus        : Range-separated hybrids, TD-DFT gradient, RPA, STAB
   Michael Roemelt        : Restricted open shell CIS
   Masaaki Saitow         : Open-shell DLPNO
   Barbara Sandhoefer     : DKH picture change effects
   Kantharuban Sivalingam : CASSCF convergence, NEVPT2, FIC-MRCI
   Georgi Stoychev        : AutoAux
   Boris Wezisla          : Elementary symmetry handling
   Frank Wennmohs         : Technical directorship


 We gratefully acknowledge several colleagues who have allowed us to
 interface, adapt or use parts of their codes:
   Stefan Grimme, W. Hujo, H. Kruse,             : VdW corrections, initial TS optimization,
                  C. Bannwarth                     DFT functionals, gCP, sTDA/sTD-DF
   Ed Valeev                                     : LibInt (2-el integral package), F12 methods
   Garnet Chan, S. Sharma, J. Yang, R. Olivares  : DMRG
   Ulf Ekstrom                                   : XCFun DFT Library
   Mihaly Kallay                                 : mrcc  (arbitrary order and MRCC methods)
   Andreas Klamt, Michael Diedenhofen            : otool_cosmo (COSMO solvation model)
   Jiri Pittner, Ondrej Demel                    : Mk-CCSD
   Frank Weinhold                                : gennbo (NPA and NBO analysis)
   Christopher J. Cramer and Donald G. Truhlar   : smd solvation model


 Your calculation uses the libint2 library for the computation of 2-el integrals
 For citations please refer to: http://libint.valeyev.net

 This ORCA versions uses:
   CBLAS   interface :  Fast vector & matrix operations
   LAPACKE interface :  Fast linear algebra routines
   SCALAPACK package :  Parallel linear algebra routines


Your calculation utilizes the atom-pairwise dispersion correction
with the Becke-Johnson damping scheme (D3BJ)
Cite in your paper:
S.Grimme, S.Ehrlich, L.Goerigk, J Comput Chem, (2011), 32, 1456–1465 
S.Grimme, J.Antony, S.Ehrlich and H.Krieg, J.Chem.Phys., 132, (2010), 154104 
   

Your calculation utilizes the basis: cc-pVDZ 
       H, B-Ne : Obtained from the ccRepo (grant-hill.group.shef.ac.uk/ccrepo) Feb. 2017
                 T. H. Dunning, Jr., J. Chem. Phys. 90, 1007 (1989)
            He : Obtained from the ccRepo (grant-hill.group.shef.ac.uk/ccrepo) Feb. 2017
                 D. E. Woon, T. H. Dunning, Jr., J. Chem. Phys. 100, 2975 (1994)
  Li-Be, Na-Mg : Obtained from the ccRepo (grant-hill.group.shef.ac.uk/ccrepo) Feb. 2017
                 B. P. Prascher, D. E. Woon, K. A. Peterson, T. H. Dunning, Jr., A. K. Wilson, Theor. Chem. Acc. 128, 69 (2011)
         Al-Ar : Obtained from the ccRepo (grant-hill.group.shef.ac.uk/ccrepo) Feb. 2017
                 D. E. Woon, T. H. Dunning, Jr., J. Chem. Phys. 98, 1358 (1993)
            Ca : Obtained from the Peterson Research Group Website (tyr0.chem.wsu.edu/~kipeters) Feb. 2017
                 J. Koput, K. A. Peterson, J. Phys. Chem. 106, 9595 (2002)
         Sc-Zn : Obtained from the ccRepo (grant-hill.group.shef.ac.uk/ccrepo) Feb. 2017
                 N. B. Balabanov, K. A. Peterson, J. Chem. Phys. 123, 064107 (2005)
                 N. B. Balabanov, K. A. Peterson, J. Chem. Phys. 125, 074110 (2006)
         Ga-Kr : Obtained from the ccRepo (grant-hill.group.shef.ac.uk/ccrepo) Feb. 2017
                 A. K. Wilson, D. E. Woon, K. A. Peterson, T. H. Dunning, Jr., J. Chem. Phys. 110, 7667 (1999)

Your calculation utilizes the auxiliary basis: def2/J
   F. Weigend, Phys. Chem. Chem. Phys. 8, 1057 (2006).

================================================================================
                                        WARNINGS
                       Please study these warnings very carefully!
================================================================================

Warning: TCutStore was < 0. Adjusted to Thresh (uncritical)

WARNING: Geometry Optimization
  ===> : Switching off AutoStart
         For restart on a previous wavefunction, please use MOREAD

INFO   : the flag for use of LIBINT has been found!

================================================================================
                                       INPUT FILE
================================================================================
NAME = AT-v/e/frag_32_c00001.com
|  1> %pal nprocs 6 end
|  2> %maxcore 1000
|  3> ! b3lyp TIGHTSCF nopop D3BJ
|  4> ! cc-pvdz def2/J RIJCOSX
|  5> ! Opt
|  6> 
|  7> %geom
|  8> maxiter 60
|  9> TolE 1e-4
| 10> TolRMSG 2e-3
| 11> TolMaxG 3e-3
| 12> TolRMSD 2e-2
| 13> TolMaxD 3e-2
| 14> end
| 15> 
| 16> *xyz 0 1
| 17> C 3.1127 -0.5801 0.0401
| 18> C 1.6326 -0.5577 -0.1631
| 19> N 0.9729 -1.7247 -0.3919
| 20> N 0.9182 0.5242 -0.136
| 21> C 3.8811 0.4921 0.2724
| 22> N -1.8699 0.4401 0.0043
| 23> C -2.4876 -0.7656 0.0311
| 24> O -1.8316 -1.8036 0.0653
| 25> C -3.9856 -0.7812 0.0153
| 26> C -4.5939 -2.1559 0.047
| 27> C -4.7527 0.3226 -0.0232
| 28> H 3.5723 -1.5615 -0.0306
| 29> H 1.3318 -2.5558 0.0607
| 30> H -0.0438 -1.66 -0.2741
| 31> H 1.5157 1.3377 0.027
| 32> H 4.9544 0.372 0.3982
| 33> H 3.4982 1.5024 0.3444
| 34> H -2.3282 1.3248 -0.1229
| 35> H -0.8444 0.45 -0.0478
| 36> H -4.2744 -2.7334 -0.8265
| 37> H -5.6883 -2.1165 0.0315
| 38> H -4.2952 -2.6963 0.9516
| 39> H -4.3609 1.3318 -0.0375
| 40> H -5.8366 0.2411 -0.0316
| 41> *
| 42> 
| 43> 
| 44>                          ****END OF INPUT****
================================================================================

                       *****************************
                       * Geometry Optimization Run *
                       *****************************

Geometry optimization settings:
Update method            Update   .... BFGS
Choice of coordinates    CoordSys .... Redundant Internals
Initial Hessian          InHess   .... Almoef's Model

Convergence Tolerances:
Energy Change            TolE     ....  1.0000e-04 Eh
Max. Gradient            TolMAXG  ....  3.0000e-03 Eh/bohr
RMS Gradient             TolRMSG  ....  2.0000e-03 Eh/bohr
Max. Displacement        TolMAXD  ....  3.0000e-02 bohr
RMS Displacement         TolRMSD  ....  2.0000e-02 bohr

------------------------------------------------------------------------------
                        ORCA OPTIMIZATION COORDINATE SETUP
------------------------------------------------------------------------------

The optimization will be done in new redundant internal coordinates
Making redundant internal coordinates   ...  (new redundants) done
Evaluating the initial hessian          ...  (Almloef) done
Evaluating the coordinates              ...  done
Calculating the B-matrix                .... done
Calculating the G-matrix                .... done
Diagonalizing the G-matrix              .... done
Small eigenvalue found = 1.039e-02
Small eigenvalue found = 2.530e-02
The first mode is                       ....   52
The number of degrees of freedom        ....   66

    -----------------------------------------------------------------
                    Redundant Internal Coordinates


    -----------------------------------------------------------------
         Definition                    Initial Value    Approx d2E/dq
    -----------------------------------------------------------------
      1. B(C   1,C   0)                  1.4942         0.426159   
      2. B(N   2,C   1)                  1.3599         0.624929   
      3. B(N   3,C   1)                  1.2968         0.788170   
      4. B(C   4,C   0)                  1.3394         0.752410   
      5. B(C   6,N   5)                  1.3550         0.636414   
      6. B(O   7,C   6)                  1.2284         1.013232   
      7. B(C   8,C   6)                  1.4982         0.419922   
      8. B(C   9,C   8)                  1.5036         0.411610   
      9. B(C  10,C   8)                  1.3447         0.737843   
     10. B(H  11,C   0)                  1.0860         0.365443   
     11. B(H  12,N   2)                  1.0121         0.429354   
     12. B(H  13,O   7)                  1.8254         0.021642   
     13. B(H  13,N   2)                  1.0255         0.408690   
     14. B(H  14,N   3)                  1.0224         0.413398   
     15. B(H  15,C   4)                  1.0873         0.363689   
     16. B(H  16,C   4)                  1.0828         0.369723   
     17. B(H  17,N   5)                  1.0044         0.441627   
     18. B(H  18,H  13)                  2.2681         0.000910   
     19. B(H  18,N   3)                  1.7664         0.026882   
     20. B(H  18,N   5)                  1.0269         0.406705   
     21. B(H  19,C   9)                  1.0948         0.353805   
     22. B(H  20,C   9)                  1.0952         0.353262   
     23. B(H  21,C   9)                  1.0952         0.353232   
     24. B(H  22,C  10)                  1.0827         0.369915   
     25. B(H  23,C  10)                  1.0870         0.364101   
     26. A(C   1,C   0,H  11)          115.0825         0.332248   
     27. A(C   4,C   0,H  11)          119.4661         0.365648   
     28. A(C   1,C   0,C   4)          125.4419         0.420189   
     29. A(C   0,C   1,N   3)          123.7378         0.420934   
     30. A(C   0,C   1,N   2)          119.3766         0.403949   
     31. A(N   2,C   1,N   3)          116.8856         0.448000   
     32. A(H  12,N   2,H  13)          110.6087         0.300134   
     33. A(C   1,N   2,H  13)          114.0446         0.355683   
     34. A(C   1,N   2,H  12)          117.2193         0.358677   
     35. A(H  14,N   3,H  18)          127.4891         0.202063   
     36. A(C   1,N   3,H  18)          121.0463         0.240807   
     37. A(C   1,N   3,H  14)          110.1942         0.370795   
     38. A(H  15,C   4,H  16)          116.3866         0.292504   
     39. A(C   0,C   4,H  16)          123.7492         0.366379   
     40. A(C   0,C   4,H  15)          119.8641         0.365347   
     41. A(H  17,N   5,H  18)          116.1515         0.301251   
     42. A(C   6,N   5,H  18)          117.7003         0.356490   
     43. A(C   6,N   5,H  17)          125.3273         0.361524   
     44. A(O   7,C   6,C   8)          121.6997         0.439182   
     45. A(N   5,C   6,C   8)          117.7024         0.404196   
     46. A(N   5,C   6,O   7)          120.5978         0.470571   
     47. A(C   6,O   7,H  13)          116.8324         0.241992   
     48. A(C   9,C   8,C  10)          121.3514         0.416145   
     49. A(C   6,C   8,C  10)          124.2040         0.417629   
     50. A(C   6,C   8,C   9)          114.4446         0.376961   
     51. A(H  20,C   9,H  21)          107.5754         0.289091   
     52. A(H  19,C   9,H  21)          108.6099         0.289161   
     53. A(C   8,C   9,H  21)          110.9888         0.328494   
     54. A(H  19,C   9,H  20)          107.4156         0.289165   
     55. A(C   8,C   9,H  20)          111.7816         0.328499   
     56. A(C   8,C   9,H  19)          110.3274         0.328582   
     57. A(H  22,C  10,H  23)          115.5080         0.292580   
     58. A(C   8,C  10,H  23)          120.4977         0.364198   
     59. A(C   8,C  10,H  22)          123.9914         0.365186   
     60. A(O   7,H  13,H  18)           73.0773         0.110802   
     61. A(N   2,H  13,H  18)          114.8403         0.131395   
     62. A(N   2,H  13,O   7)          170.8790         0.196369   
     63. A(N   3,H  18,H  13)           71.4499         0.111898   
     64. A(N   5,H  18,H  13)          110.4020         0.131348   
     65. D(N   2,C   1,C   0,C   4)    179.9751         0.012416   
     66. D(N   3,C   1,C   0,C   4)      0.0072         0.012416   
     67. D(N   3,C   1,C   0,H  11)   -178.8586         0.012416   
     68. D(N   2,C   1,C   0,H  11)      1.1092         0.012416   
     69. D(H  12,N   2,C   1,N   3)   -146.8770         0.031663   
     70. D(H  13,N   2,C   1,C   0)    164.6753         0.031663   
     71. D(H  13,N   2,C   1,N   3)    -15.3547         0.031663   
     72. D(H  12,N   2,C   1,C   0)     33.1530         0.031663   
     73. D(H  18,N   3,C   1,N   2)     12.8777         0.052771   
     74. D(H  18,N   3,C   1,C   0)   -167.1538         0.052771   
     75. D(H  14,N   3,C   1,C   0)      0.8907         0.052771   
     76. D(H  14,N   3,C   1,N   2)   -179.0779         0.052771   
     77. D(H  15,C   4,C   0,H  11)     -0.6179         0.040398   
     78. D(H  16,C   4,C   0,C   1)      0.4408         0.040398   
     79. D(H  15,C   4,C   0,C   1)   -179.4380         0.040398   
     80. D(H  16,C   4,C   0,H  11)    179.2610         0.040398   
     81. D(H  17,N   5,N   3,H  14)     23.1154         0.001501   
     82. D(H  17,N   5,N   3,C   1)   -170.9705         0.001501   
     83. D(C   6,N   5,N   3,H  14)   -166.5798         0.001501   
     84. D(C   6,N   5,N   3,C   1)     -0.6657         0.001501   
     85. D(C   8,C   6,N   5,H  18)   -176.0323         0.032935   
     86. D(O   7,C   6,N   5,H  18)      3.8732         0.032935   
     87. D(O   7,C   6,N   5,H  17)    173.0645         0.032935   
     88. D(C   8,C   6,N   5,H  17)     -6.8410         0.032935   
     89. D(H  13,O   7,C   6,C   8)    167.4170         0.084441   
     90. D(H  13,O   7,C   6,N   5)    -12.4847         0.084441   
     91. D(C  10,C   8,C   6,O   7)   -179.9289         0.012069   
     92. D(C  10,C   8,C   6,N   5)     -0.0245         0.012069   
     93. D(C   9,C   8,C   6,O   7)      0.0999         0.012069   
     94. D(C   9,C   8,C   6,N   5)   -179.9957         0.012069   
     95. D(H  19,C   9,C   8,C   6)    -60.4011         0.012544   
     96. D(H  21,C   9,C   8,C  10)   -119.9340         0.012544   
     97. D(H  21,C   9,C   8,C   6)     60.0381         0.012544   
     98. D(H  20,C   9,C   8,C  10)      0.1711         0.012544   
     99. D(H  20,C   9,C   8,C   6)   -179.8569         0.012544   
    100. D(H  19,C   9,C   8,C  10)    119.6268         0.012544   
    101. D(H  23,C  10,C   8,C   9)      0.0373         0.038704   
    102. D(H  23,C  10,C   8,C   6)   -179.9320         0.038704   
    103. D(H  22,C  10,C   8,C   9)    179.3913         0.038704   
    104. D(H  22,C  10,C   8,C   6)     -0.5780         0.038704   
    105. D(H  18,H  13,O   7,C   6)     10.1076         0.001749   
    106. D(N   2,H  13,O   7,C   6)    161.1448         0.001749   
    107. D(H  18,H  13,N   2,H  12)    145.0944         0.207578   
    108. D(H  18,H  13,N   2,C   1)     10.4359         0.207578   
    109. D(O   7,H  13,N   2,H  12)     -4.2082         0.207578   
    110. D(O   7,H  13,N   2,C   1)   -138.8667         0.207578   
    111. D(N   3,H  18,H  13,O   7)    171.6186         0.001508   
    112. D(N   3,H  18,H  13,N   2)     -3.5291         0.001508   
    113. D(N   5,H  18,H  13,O   7)     -8.5062         0.001508   
    114. D(N   5,H  18,H  13,N   2)    176.3462         0.001508   
    115. D(H  13,H  18,N   5,H  17)   -165.4017         0.205058   
    116. D(H  13,H  18,N   5,C   6)      4.7844         0.205058   
    117. D(H  13,H  18,N   3,H  14)   -171.2247         0.001933   
    118. D(H  13,H  18,N   3,C   1)     -5.4079         0.001933   
    -----------------------------------------------------------------

Number of atoms                         .... 24
Number of degrees of freedom            .... 118

         *************************************************************
         *                GEOMETRY OPTIMIZATION CYCLE   1            *
         *************************************************************
---------------------------------
CARTESIAN COORDINATES (ANGSTROEM)
---------------------------------
  C      3.112700   -0.580100    0.040100
  C      1.632600   -0.557700   -0.163100
  N      0.972900   -1.724700   -0.391900
  N      0.918200    0.524200   -0.136000
  C      3.881100    0.492100    0.272400
  N     -1.869900    0.440100    0.004300
  C     -2.487600   -0.765600    0.031100
  O     -1.831600   -1.803600    0.065300
  C     -3.985600   -0.781200    0.015300
  C     -4.593900   -2.155900    0.047000
  C     -4.752700    0.322600   -0.023200
  H      3.572300   -1.561500   -0.030600
  H      1.331800   -2.555800    0.060700
  H     -0.043800   -1.660000   -0.274100
  H      1.515700    1.337700    0.027000
  H      4.954400    0.372000    0.398200
  H      3.498200    1.502400    0.344400
  H     -2.328200    1.324800   -0.122900
  H     -0.844400    0.450000   -0.047800
  H     -4.274400   -2.733400   -0.826500
  H     -5.688300   -2.116500    0.031500
  H     -4.295200   -2.696300    0.951600
  H     -4.360900    1.331800   -0.037500
  H     -5.836600    0.241100   -0.031600

----------------------------
CARTESIAN COORDINATES (A.U.)
----------------------------
  NO LB      ZA    FRAG     MASS         X           Y           Z
   0 C     6.0000    0    12.011    5.882151   -1.096230    0.075778
   1 C     6.0000    0    12.011    3.085167   -1.053900   -0.308214
   2 N     7.0000    0    14.007    1.838515   -3.259211   -0.740584
   3 N     7.0000    0    14.007    1.735147    0.990594   -0.257003
   4 C     6.0000    0    12.011    7.334216    0.929934    0.514761
   5 N     7.0000    0    14.007   -3.533599    0.831668    0.008126
   6 C     6.0000    0    12.011   -4.700883   -1.446774    0.058770
   7 O     8.0000    0    15.999   -3.461222   -3.408310    0.123399
   8 C     6.0000    0    12.011   -7.531692   -1.476254    0.028913
   9 C     6.0000    0    12.011   -8.681213   -4.074061    0.088817
  10 C     6.0000    0    12.011   -8.981301    0.609626   -0.043842
  11 H     1.0000    0     1.008    6.750669   -2.950807   -0.057826
  12 H     1.0000    0     1.008    2.516737   -4.829762    0.114706
  13 H     1.0000    0     1.008   -0.082770   -3.136945   -0.517974
  14 H     1.0000    0     1.008    2.864258    2.527887    0.051023
  15 H     1.0000    0     1.008    9.362459    0.702978    0.752489
  16 H     1.0000    0     1.008    6.610640    2.839125    0.650822
  17 H     1.0000    0     1.008   -4.399660    2.503509   -0.232247
  18 H     1.0000    0     1.008   -1.595685    0.850377   -0.090329
  19 H     1.0000    0     1.008   -8.077445   -5.165377   -1.561859
  20 H     1.0000    0     1.008  -10.749329   -3.999605    0.059526
  21 H     1.0000    0     1.008   -8.116752   -5.095269    1.798263
  22 H     1.0000    0     1.008   -8.240907    2.516737   -0.070865
  23 H     1.0000    0     1.008  -11.029576    0.455613   -0.059715

--------------------------------
INTERNAL COORDINATES (ANGSTROEM)
--------------------------------
 C      0   0   0     0.000000000000     0.00000000     0.00000000
 C      1   0   0     1.494151267442     0.00000000     0.00000000
 N      2   1   0     1.359942105385   119.37659986     0.00000000
 N      2   1   3     1.296768822882   123.73775742   180.03217799
 C      1   2   3     1.339408335796   125.44187272   179.97506960
 N      4   2   1     2.792894289084   121.72812222   192.87134512
 C      6   4   2     1.354984878144   118.87352605   359.33431167
 O      7   6   4     1.228393112973   120.59783613     3.84680658
 C      7   6   4     1.498164543700   117.70239839   183.94127155
 C      9   7   6     1.503606953296   114.44463646   180.00432567
 C      9   7   6     1.344730121623   124.20400526   359.97549288
 H      1   2   3     1.085991072707   115.08246543     1.10924546
 H      3   2   1     1.012118165038   117.21932149    33.15303562
 H      3   2   1     1.025544645542   114.04459231   164.67526576
 H      4   2   1     1.022427259026   110.19423111     0.89068787
 H      5   1   2     1.087300574818   119.86408485   180.56199129
 H      5   1   2     1.082821545778   123.74919489     0.44083163
 H      6   4   2     1.004446524211   114.99910563   189.02952826
 H      6   4   2     1.026870327743     1.17349008   358.19165691
 H     10   9   7     1.094800780964   110.32743869   299.59889300
 H     10   9   7     1.095218685925   111.78158153   180.14314241
 H     10   9   7     1.095241986960   110.98879509    60.03811412
 H     11   9   7     1.082680179000   123.99144213   359.42202667
 H     11   9   7     1.086992189484   120.49767587   180.06799026

---------------------------
INTERNAL COORDINATES (A.U.)
---------------------------
 C      0   0   0     0.000000000000     0.00000000     0.00000000
 C      1   0   0     2.823536698118     0.00000000     0.00000000
 N      2   1   0     2.569918137167   119.37659986     0.00000000
 N      2   1   3     2.450537934255   123.73775742   180.03217799
 C      1   2   3     2.531114936146   125.44187272   179.97506960
 N      4   2   1     5.277805327362   121.72812222   192.87134512
 C      6   4   2     2.560550335298   118.87352605   359.33431167
 O      7   6   4     2.321326568314   120.59783613     3.84680658
 C      7   6   4     2.831120691144   117.70239839   183.94127155
 C      9   7   6     2.841405354789   114.44463646   180.00432567
 C      9   7   6     2.541171653902   124.20400526   359.97549288
 H      1   2   3     2.052225711300   115.08246543     1.10924546
 H      3   2   1     1.912626147089   117.21932149    33.15303562
 H      3   2   1     1.937998518184   114.04459231   164.67526576
 H      4   2   1     1.932107511415   110.19423111     0.89068787
 H      5   1   2     2.054700311662   119.86408485   180.56199129
 H      5   1   2     2.046236173429   123.74919489     0.44083163
 H      6   4   2     1.898128846928   114.99910563   189.02952826
 H      6   4   2     1.940503694485     1.17349008   358.19165691
 H     10   9   7     2.068873647226   110.32743869   299.59889300
 H     10   9   7     2.069663373152   111.78158153   180.14314241
 H     10   9   7     2.069707405726   110.98879509    60.03811412
 H     11   9   7     2.045969028935   123.99144213   359.42202667
 H     11   9   7     2.054117547837   120.49767587   180.06799026

---------------------
BASIS SET INFORMATION
---------------------
There are 4 groups of distinct atoms

 Group   1 Type C   : 17s4p1d contracted to 3s2p1d pattern {881/31/1}
 Group   2 Type N   : 17s4p1d contracted to 3s2p1d pattern {881/31/1}
 Group   3 Type O   : 17s4p1d contracted to 3s2p1d pattern {881/31/1}
 Group   4 Type H   : 4s1p contracted to 2s1p pattern {31/1}

Atom   0C    basis set group =>   1
Atom   1C    basis set group =>   1
Atom   2N    basis set group =>   2
Atom   3N    basis set group =>   2
Atom   4C    basis set group =>   1
Atom   5N    basis set group =>   2
Atom   6C    basis set group =>   1
Atom   7O    basis set group =>   3
Atom   8C    basis set group =>   1
Atom   9C    basis set group =>   1
Atom  10C    basis set group =>   1
Atom  11H    basis set group =>   4
Atom  12H    basis set group =>   4
Atom  13H    basis set group =>   4
Atom  14H    basis set group =>   4
Atom  15H    basis set group =>   4
Atom  16H    basis set group =>   4
Atom  17H    basis set group =>   4
Atom  18H    basis set group =>   4
Atom  19H    basis set group =>   4
Atom  20H    basis set group =>   4
Atom  21H    basis set group =>   4
Atom  22H    basis set group =>   4
Atom  23H    basis set group =>   4
-------------------------------
AUXILIARY BASIS SET INFORMATION
-------------------------------
There are 4 groups of distinct atoms

 Group   1 Type C   : 12s5p4d2f1g contracted to 6s4p3d1f1g pattern {711111/2111/211/2/1}
 Group   2 Type N   : 12s5p4d2f1g contracted to 6s4p3d1f1g pattern {711111/2111/211/2/1}
 Group   3 Type O   : 12s5p4d2f1g contracted to 6s4p3d1f1g pattern {711111/2111/211/2/1}
 Group   4 Type H   : 5s2p1d contracted to 3s1p1d pattern {311/2/1}

Atom   0C    basis set group =>   1
Atom   1C    basis set group =>   1
Atom   2N    basis set group =>   2
Atom   3N    basis set group =>   2
Atom   4C    basis set group =>   1
Atom   5N    basis set group =>   2
Atom   6C    basis set group =>   1
Atom   7O    basis set group =>   3
Atom   8C    basis set group =>   1
Atom   9C    basis set group =>   1
Atom  10C    basis set group =>   1
Atom  11H    basis set group =>   4
Atom  12H    basis set group =>   4
Atom  13H    basis set group =>   4
Atom  14H    basis set group =>   4
Atom  15H    basis set group =>   4
Atom  16H    basis set group =>   4
Atom  17H    basis set group =>   4
Atom  18H    basis set group =>   4
Atom  19H    basis set group =>   4
Atom  20H    basis set group =>   4
Atom  21H    basis set group =>   4
Atom  22H    basis set group =>   4
Atom  23H    basis set group =>   4


           ************************************************************
           *        Program running with 6 parallel MPI-processes     *
           *              working on a common directory               *
           ************************************************************
------------------------------------------------------------------------------
                           ORCA GTO INTEGRAL CALCULATION
                           -- RI-GTO INTEGRALS CHOSEN --
------------------------------------------------------------------------------

                         BASIS SET STATISTICS AND STARTUP INFO

Gaussian basis set:
 # of primitive gaussian shells          ...  307
 # of primitive gaussian functions       ...  465
 # of contracted shells                  ...  105
 # of contracted basis functions         ...  219
 Highest angular momentum                ...    2
 Maximum contraction depth               ...    8
Auxiliary gaussian basis set:
 # of primitive gaussian shells          ...  368
 # of primitive gaussian functions       ...  978
 # of contracted shells                  ...  230
 # of contracted aux-basis functions     ...  682
 Highest angular momentum                ...    4
 Maximum contraction depth               ...    7
Ratio of auxiliary to basis functions    ...  3.11
Integral package used                  ... LIBINT
 One Electron integrals                  ... done
 Ordering auxiliary basis shells         ... done
 Integral threshhold             Thresh  ...  2.500e-11
 Primitive cut-off               TCut    ...  2.500e-12
 Pre-screening matrix                    ... done
 Shell pair data                         ... 
 Ordering of the shell pairs             ... done (   0.001 sec) 4536 of 5565 pairs
 Determination of significant pairs      ... done (   0.000 sec)
 Creation of shell pair data             ... done (   0.002 sec)
 Storage of shell pair data              ... done (   0.003 sec)
 Shell pair data done in (   0.006 sec)
 Computing two index integrals           ... done
 Cholesky decomposition of the V-matrix  ... done


Timings:
 Total evaluation time                   ...   0.462 sec (  0.008 min)
 One electron matrix time                ...   0.064 sec (  0.001 min) = 13.7%
 Schwartz matrix evaluation time         ...   0.324 sec (  0.005 min) = 70.1%
 Two index repulsion integral time       ...   0.031 sec (  0.001 min) =  6.7%
 Cholesky decomposition of V             ...   0.016 sec (  0.000 min) =  3.6%
 Three index repulsion integral time     ...   0.000 sec (  0.000 min) =  0.0%



           ************************************************************
           *        Program running with 6 parallel MPI-processes     *
           *              working on a common directory               *
           ************************************************************
-------------------------------------------------------------------------------
                                 ORCA SCF
-------------------------------------------------------------------------------

------------
SCF SETTINGS
------------
Hamiltonian:
 Density Functional     Method          .... DFT(GTOs)
 Exchange Functional    Exchange        .... B88
   X-Alpha parameter    XAlpha          ....  0.666667
   Becke's b parameter  XBeta           ....  0.004200
 Correlation Functional Correlation     .... LYP
 LDA part of GGA corr.  LDAOpt          .... VWN-5
 Gradients option       PostSCFGGA      .... off
 Hybrid DFT is turned on
   Fraction HF Exchange ScalHFX         ....  0.200000
   Scaling of DF-GGA-X  ScalDFX         ....  0.720000
   Scaling of DF-GGA-C  ScalDFC         ....  0.810000
   Scaling of DF-LDA-C  ScalLDAC        ....  1.000000
   Perturbative correction              ....  0.000000
   NL short-range parameter             ....  4.800000
 RI-approximation to the Coulomb term is turned on
   Number of auxiliary basis functions  .... 682
   RIJ-COSX (HFX calculated with COS-X)).... on


General Settings:
 Integral files         IntName         .... AT-v/e/frag_32_c00001
 Hartree-Fock type      HFTyp           .... RHF
 Total Charge           Charge          ....    0
 Multiplicity           Mult            ....    1
 Number of Electrons    NEL             ....   84
 Basis Dimension        Dim             ....  219
 Nuclear Repulsion      ENuc            ....    576.8543472786 Eh

Convergence Acceleration:
 DIIS                   CNVDIIS         .... on
   Start iteration      DIISMaxIt       ....    12
   Startup error        DIISStart       ....  0.200000
   # of expansion vecs  DIISMaxEq       ....     5
   Bias factor          DIISBfac        ....   1.050
   Max. coefficient     DIISMaxC        ....  10.000
 Newton-Raphson         CNVNR           .... off
 SOSCF                  CNVSOSCF        .... on
   Start iteration      SOSCFMaxIt      ....   150
   Startup grad/error   SOSCFStart      ....  0.003300
 Level Shifting         CNVShift        .... on
   Level shift para.    LevelShift      ....    0.2500
   Turn off err/grad.   ShiftErr        ....    0.0010
 Zerner damping         CNVZerner       .... off
 Static damping         CNVDamp         .... on
   Fraction old density DampFac         ....    0.7000
   Max. Damping (<1)    DampMax         ....    0.9800
   Min. Damping (>=0)   DampMin         ....    0.0000
   Turn off err/grad.   DampErr         ....    0.1000
 Fernandez-Rico         CNVRico         .... off

SCF Procedure:
 Maximum # iterations   MaxIter         ....   125
 SCF integral mode      SCFMode         .... Direct
   Integral package                     .... LIBINT
 Reset frequeny         DirectResetFreq ....    20
 Integral Threshold     Thresh          ....  2.500e-11 Eh
 Primitive CutOff       TCut            ....  2.500e-12 Eh

Convergence Tolerance:
 Convergence Check Mode ConvCheckMode   .... Total+1el-Energy
 Convergence forced     ConvForced      .... 0
 Energy Change          TolE            ....  1.000e-08 Eh
 1-El. energy change                    ....  1.000e-05 Eh
 Orbital Gradient       TolG            ....  1.000e-05
 Orbital Rotation angle TolX            ....  1.000e-05
 DIIS Error             TolErr          ....  5.000e-07


Diagonalization of the overlap matrix:
Smallest eigenvalue                        ... 1.645e-03
Time for diagonalization                   ...    0.011 sec
Threshold for overlap eigenvalues          ... 1.000e-08
Number of eigenvalues below threshold      ... 0
Time for construction of square roots      ...    0.006 sec
Total time needed                          ...    0.017 sec

-------------------
DFT GRID GENERATION
-------------------

General Integration Accuracy     IntAcc      ...  4.340
Radial Grid Type                 RadialGrid  ... Gauss-Chebyshev
Angular Grid (max. acc.)         AngularGrid ... Lebedev-110
Angular grid pruning method      GridPruning ... 3 (G Style)
Weight generation scheme         WeightScheme... Becke
Basis function cutoff            BFCut       ...    1.0000e-11
Integration weight cutoff        WCut        ...    1.0000e-14
Grids for H and He will be reduced by one unit

# of grid points (after initial pruning)     ...  28736 (   0.0 sec)
# of grid points (after weights+screening)   ...  26524 (   0.0 sec)
nearest neighbour list constructed           ...    0.0 sec
Grid point re-assignment to atoms done       ...    0.0 sec
Grid point division into batches done        ...    0.0 sec
Reduced shell lists constructed in    0.1 sec

Total number of grid points                  ...    26524
Total number of batches                      ...      428
Average number of points per batch           ...       61
Average number of grid points per atom       ...     1105
Average number of shells per batch           ...    70.10 (66.76%)
Average number of basis functions per batch  ...   140.42 (64.12%)
Average number of large shells per batch     ...    49.05 (69.98%)
Average number of large basis fcns per batch ...   100.18 (71.34%)
Maximum spatial batch extension              ...   6.76,  7.82, 18.63 au
Average spatial batch extension              ...   0.32,  0.33,  0.52 au

Time for grid setup =    0.163 sec

------------------------------
INITIAL GUESS: MODEL POTENTIAL
------------------------------
Loading Hartree-Fock densities                     ... done
Calculating cut-offs                               ... done
Setting up the integral package                    ... done
Initializing the effective Hamiltonian             ... done
Starting the Coulomb interaction                   ... done (   0.1 sec)
Reading the grid                                   ... done
Mapping shells                                     ... done
Starting the XC term evaluation                    ... done (   0.1 sec)
  promolecular density results
     # of electrons  =     84.022455123
     EX              =    -67.733558304
     EC              =     -2.808500287
     EX+EC           =    -70.542058592
Transforming the Hamiltonian                       ... done (   0.0 sec)
Diagonalizing the Hamiltonian                      ... done (   0.0 sec)
Back transforming the eigenvectors                 ... done (   0.0 sec)
Now organizing SCF variables                       ... done
                      ------------------
                      INITIAL GUESS DONE (   0.5 sec)
                      ------------------
--------------------
COSX GRID GENERATION
--------------------

General Integration Accuracy     IntAcc      ...  3.340
Radial Grid Type                 RadialGrid  ... Gauss-Chebyshev
Angular Grid (max. acc.)         AngularGrid ... Lebedev-50
Angular grid pruning method      GridPruning ... 3 (G Style)
Weight generation scheme         WeightScheme... Becke
Basis function cutoff            BFCut       ...    1.0000e-11
Integration weight cutoff        WCut        ...    1.0000e-14
Grids for H and He will be reduced by one unit

# of grid points (after initial pruning)     ...  10498 (   0.0 sec)
# of grid points (after weights+screening)   ...   9768 (   0.0 sec)
nearest neighbour list constructed           ...    0.0 sec
Grid point re-assignment to atoms done       ...    0.0 sec
Grid point division into batches done        ...    0.0 sec
Reduced shell lists constructed in    0.0 sec

Total number of grid points                  ...     9768
Total number of batches                      ...      163
Average number of points per batch           ...       59
Average number of grid points per atom       ...      407
Average number of shells per batch           ...    71.38 (67.98%)
Average number of basis functions per batch  ...   143.17 (65.38%)
Average number of large shells per batch     ...    50.97 (71.40%)
Average number of large basis fcns per batch ...   103.86 (72.54%)
Maximum spatial batch extension              ...   5.96,  8.31, 16.28 au
Average spatial batch extension              ...   0.40,  0.45,  0.79 au

Overlap Fitting                  UseSFitting ... on
Constructing numerical overlap ... done (      0.0 sec)
Inverting numerical overlap    ... done (      0.0 sec)
Obtaining analytic overlap     ... done (      0.0 sec)
Final contraction and storage  ... done (      0.0 sec)


General Integration Accuracy     IntAcc      ...  3.670
Radial Grid Type                 RadialGrid  ... Gauss-Chebyshev
Angular Grid (max. acc.)         AngularGrid ... Lebedev-50
Angular grid pruning method      GridPruning ... 3 (G Style)
Weight generation scheme         WeightScheme... Becke
Basis function cutoff            BFCut       ...    1.0000e-11
Integration weight cutoff        WCut        ...    1.0000e-14
Grids for H and He will be reduced by one unit

# of grid points (after initial pruning)     ...  13458 (   0.0 sec)
# of grid points (after weights+screening)   ...  12487 (   0.0 sec)
nearest neighbour list constructed           ...    0.0 sec
Grid point re-assignment to atoms done       ...    0.0 sec
Grid point division into batches done        ...    0.0 sec
Reduced shell lists constructed in    0.0 sec

Total number of grid points                  ...    12487
Total number of batches                      ...      210
Average number of points per batch           ...       59
Average number of grid points per atom       ...      520
Average number of shells per batch           ...    71.53 (68.12%)
Average number of basis functions per batch  ...   143.75 (65.64%)
Average number of large shells per batch     ...    50.75 (70.95%)
Average number of large basis fcns per batch ...   103.92 (72.29%)
Maximum spatial batch extension              ...   5.96,  9.29, 17.70 au
Average spatial batch extension              ...   0.38,  0.39,  0.72 au

Overlap Fitting                  UseSFitting ... on
Constructing numerical overlap ... done (      0.0 sec)
Inverting numerical overlap    ... done (      0.0 sec)
Obtaining analytic overlap     ... done (      0.0 sec)
Final contraction and storage  ... done (      0.0 sec)


General Integration Accuracy     IntAcc      ...  4.010
Radial Grid Type                 RadialGrid  ... Gauss-Chebyshev
Angular Grid (max. acc.)         AngularGrid ... Lebedev-110
Angular grid pruning method      GridPruning ... 3 (G Style)
Weight generation scheme         WeightScheme... Becke
Basis function cutoff            BFCut       ...    1.0000e-11
Integration weight cutoff        WCut        ...    1.0000e-14
Grids for H and He will be reduced by one unit

# of grid points (after initial pruning)     ...  24786 (   0.0 sec)
# of grid points (after weights+screening)   ...  22903 (   0.0 sec)
nearest neighbour list constructed           ...    0.0 sec
Grid point re-assignment to atoms done       ...    0.0 sec
Grid point division into batches done        ...    0.0 sec
Reduced shell lists constructed in    0.1 sec

Total number of grid points                  ...    22903
Total number of batches                      ...      369
Average number of points per batch           ...       62
Average number of grid points per atom       ...      954
Average number of shells per batch           ...    70.65 (67.29%)
Average number of basis functions per batch  ...   141.60 (64.66%)
Average number of large shells per batch     ...    49.83 (70.52%)
Average number of large basis fcns per batch ...   101.98 (72.02%)
Maximum spatial batch extension              ...   6.33,  7.53, 35.67 au
Average spatial batch extension              ...   0.35,  0.35,  0.61 au

Overlap Fitting                  UseSFitting ... on
Constructing numerical overlap ... done (      0.0 sec)
Inverting numerical overlap    ... done (      0.0 sec)
Obtaining analytic overlap     ... done (      0.0 sec)
Final contraction and storage  ... done (      0.0 sec)

Time for X-Grid setup             =    0.453 sec
--------------
SCF ITERATIONS
--------------
ITER       Energy         Delta-E        Max-DP      RMS-DP      [F,P]     Damp
               ***  Starting incremental Fock matrix formation  ***
  0   -513.3146057978   0.000000000000 0.09636449  0.00224236  0.2655855 0.7000
  1   -513.5230779971  -0.208472199311 0.06165737  0.00150502  0.1158863 0.7000
                               ***Turning on DIIS***
  2   -513.6025850042  -0.079507007073 0.08062679  0.00224810  0.0436257 0.0000
  3   -513.7230966347  -0.120511630511 0.04265309  0.00104657  0.0643322 0.0000
  4   -513.7524474774  -0.029350842710 0.00805533  0.00030753  0.0131756 0.0000
  5   -513.7544002964  -0.001952818977 0.00423693  0.00010752  0.0059244 0.0000
                      *** Initiating the SOSCF procedure ***
                           *** Shutting down DIIS ***
                      *** Re-Reading the Fockian *** 
                      *** Removing any level shift *** 
ITER      Energy       Delta-E        Grad      Rot      Max-DP    RMS-DP
  6   -513.75453430  -0.0001340084  0.000357  0.000357  0.001453  0.000037
               *** Restarting incremental Fock matrix formation ***
  7   -513.75455879  -0.0000244888  0.000129  0.000386  0.000950  0.000027
  8   -513.75455744   0.0000013554  0.000310  0.000452  0.000806  0.000013
  9   -513.75456053  -0.0000030968  0.000051  0.000144  0.000183  0.000007
 10   -513.75456048   0.0000000578  0.000066  0.000070  0.000108  0.000003
 11   -513.75456070  -0.0000002229  0.000012  0.000033  0.000046  0.000001
 12   -513.75456070   0.0000000048  0.000015  0.000018  0.000023  0.000001
 13   -513.75456071  -0.0000000127  0.000003  0.000010  0.000013  0.000000
 14   -513.75456071  -0.0000000043  0.000004  0.000006  0.000009  0.000000
                  ***Gradient check signals convergence***
              ***Rediagonalizing the Fockian in SOSCF/NRSCF***

               *****************************************************
               *                     SUCCESS                       *
               *           SCF CONVERGED AFTER  15 CYCLES          *
               *****************************************************

Setting up the final grid:

General Integration Accuracy     IntAcc      ...  4.670
Radial Grid Type                 RadialGrid  ... Gauss-Chebyshev
Angular Grid (max. acc.)         AngularGrid ... Lebedev-302
Angular grid pruning method      GridPruning ... 3 (G Style)
Weight generation scheme         WeightScheme... Becke
Basis function cutoff            BFCut       ...    1.0000e-11
Integration weight cutoff        WCut        ...    1.0000e-14
Grids for H and He will be reduced by one unit

# of grid points (after initial pruning)     ... 112454 (   0.0 sec)
# of grid points (after weights+screening)   ... 102134 (   0.2 sec)
nearest neighbour list constructed           ...    0.0 sec
Grid point re-assignment to atoms done       ...    0.0 sec
Grid point division into batches done        ...    0.4 sec
Reduced shell lists constructed in    0.7 sec

Total number of grid points                  ...   102134
Total number of batches                      ...     1610
Average number of points per batch           ...       63
Average number of grid points per atom       ...     4256
Average number of shells per batch           ...    65.46 (62.34%)
Average number of basis functions per batch  ...   130.76 (59.71%)
Average number of large shells per batch     ...    45.01 (68.76%)
Average number of large basis fcns per batch ...    91.67 (70.10%)
Maximum spatial batch extension              ...   8.40, 10.11, 22.64 au
Average spatial batch extension              ...   0.23,  0.24,  0.31 au

Final grid set up in    0.9 sec
Final integration                            ... done (   0.4 sec)
Change in XC energy                          ...     0.000334265
Integrated number of electrons               ...    83.999810880
Previous integrated no of electrons          ...    84.010104484
Old exchange energy                            =    -13.794231268 Eh
New exchange energy                            =    -13.794027091 Eh
Exchange energy change after final integration =      0.000204177 Eh
Total energy after final integration           =   -513.754022263 Eh
Final COS-X integration done in                =     3.799 sec

----------------
TOTAL SCF ENERGY
----------------

Total Energy       :         -513.75402226 Eh          -13979.95767 eV

Components:
Nuclear Repulsion  :          576.85434728 Eh           15697.00481 eV
Electronic Energy  :        -1090.60836954 Eh          -29676.96248 eV
One Electron Energy:        -1840.97807617 Eh          -50095.56026 eV
Two Electron Energy:          750.36970663 Eh           20418.59778 eV

Virial components:
Potential Energy   :        -1024.41493085 Eh          -27875.74744 eV
Kinetic Energy     :          510.66090858 Eh           13895.78977 eV
Virial Ratio       :            2.00605708


DFT components:
N(Alpha)           :       41.999905440220 electrons
N(Beta)            :       41.999905440220 electrons
N(Total)           :       83.999810880440 electrons
E(X)               :      -54.796610686396 Eh       
E(C)               :       -3.322993116098 Eh       
E(XC)              :      -58.119603802494 Eh       

---------------
SCF CONVERGENCE
---------------

  Last Energy change         ...    6.2936e-09  Tolerance :   1.0000e-08
  Last MAX-Density change    ...    2.7887e-13  Tolerance :   1.0000e-07
  Last RMS-Density change    ...    1.5804e-15  Tolerance :   5.0000e-09
  Last Orbital Gradient      ...    3.6121e-07  Tolerance :   1.0000e-05
  Last Orbital Rotation      ...    1.7252e-06  Tolerance :   1.0000e-05

             **** THE GBW FILE WAS UPDATED (AT-v/e/frag_32_c00001.gbw) ****
             **** DENSITY FILE WAS UPDATED (AT-v/e/frag_32_c00001.scfp.tmp) ****
             **** ENERGY FILE WAS UPDATED (AT-v/e/frag_32_c00001.en.tmp) ****
----------------
ORBITAL ENERGIES
----------------

  NO   OCC          E(Eh)            E(eV) 
   0   2.0000     -19.095490      -519.6147 
   1   2.0000     -14.316906      -389.5828 
   2   2.0000     -14.310774      -389.4160 
   3   2.0000     -14.284679      -388.7059 
   4   2.0000     -10.273421      -279.5540 
   5   2.0000     -10.254203      -279.0311 
   6   2.0000     -10.206899      -277.7438 
   7   2.0000     -10.204477      -277.6779 
   8   2.0000     -10.197854      -277.4977 
   9   2.0000     -10.188655      -277.2474 
  10   2.0000     -10.173925      -276.8466 
  11   2.0000      -1.024444       -27.8765 
  12   2.0000      -0.938877       -25.5481 
  13   2.0000      -0.876408       -23.8483 
  14   2.0000      -0.835956       -22.7475 
  15   2.0000      -0.795010       -21.6333 
  16   2.0000      -0.777996       -21.1703 
  17   2.0000      -0.682688       -18.5769 
  18   2.0000      -0.638125       -17.3643 
  19   2.0000      -0.620298       -16.8792 
  20   2.0000      -0.558733       -15.2039 
  21   2.0000      -0.542556       -14.7637 
  22   2.0000      -0.518429       -14.1072 
  23   2.0000      -0.503185       -13.6924 
  24   2.0000      -0.489047       -13.3077 
  25   2.0000      -0.462832       -12.5943 
  26   2.0000      -0.441823       -12.0226 
  27   2.0000      -0.430898       -11.7253 
  28   2.0000      -0.422598       -11.4995 
  29   2.0000      -0.420270       -11.4361 
  30   2.0000      -0.398749       -10.8505 
  31   2.0000      -0.383183       -10.4269 
  32   2.0000      -0.378820       -10.3082 
  33   2.0000      -0.375847       -10.2273 
  34   2.0000      -0.364426        -9.9165 
  35   2.0000      -0.358707        -9.7609 
  36   2.0000      -0.280310        -7.6276 
  37   2.0000      -0.269736        -7.3399 
  38   2.0000      -0.263010        -7.1569 
  39   2.0000      -0.245611        -6.6834 
  40   2.0000      -0.242206        -6.5908 
  41   2.0000      -0.224918        -6.1203 
  42   0.0000      -0.039191        -1.0664 
  43   0.0000      -0.026888        -0.7317 
  44   0.0000       0.060159         1.6370 
  45   0.0000       0.067632         1.8404 
  46   0.0000       0.075840         2.0637 
  47   0.0000       0.088501         2.4082 
  48   0.0000       0.094483         2.5710 
  49   0.0000       0.102687         2.7943 
  50   0.0000       0.108657         2.9567 
  51   0.0000       0.113402         3.0858 
  52   0.0000       0.150138         4.0855 
  53   0.0000       0.155047         4.2190 
  54   0.0000       0.165665         4.5080 
  55   0.0000       0.167186         4.5494 
  56   0.0000       0.181362         4.9351 
  57   0.0000       0.210651         5.7321 
  58   0.0000       0.239726         6.5233 
  59   0.0000       0.253548         6.8994 
  60   0.0000       0.267574         7.2810 
  61   0.0000       0.299633         8.1534 
  62   0.0000       0.310972         8.4620 
  63   0.0000       0.320668         8.7258 
  64   0.0000       0.344021         9.3613 
  65   0.0000       0.381107        10.3704 
  66   0.0000       0.398808        10.8521 
  67   0.0000       0.421508        11.4698 
  68   0.0000       0.438034        11.9195 
  69   0.0000       0.440755        11.9936 
  70   0.0000       0.456337        12.4176 
  71   0.0000       0.463288        12.6067 
  72   0.0000       0.486379        13.2350 
  73   0.0000       0.493717        13.4347 
  74   0.0000       0.495829        13.4922 
  75   0.0000       0.507643        13.8137 
  76   0.0000       0.511896        13.9294 
  77   0.0000       0.523061        14.2332 
  78   0.0000       0.543551        14.7908 
  79   0.0000       0.550625        14.9833 
  80   0.0000       0.550901        14.9908 
  81   0.0000       0.558644        15.2015 
  82   0.0000       0.571585        15.5536 
  83   0.0000       0.578437        15.7401 
  84   0.0000       0.588328        16.0092 
  85   0.0000       0.601986        16.3809 
  86   0.0000       0.625890        17.0313 
  87   0.0000       0.643195        17.5022 
  88   0.0000       0.652643        17.7593 
  89   0.0000       0.654809        17.8183 
  90   0.0000       0.658564        17.9204 
  91   0.0000       0.662546        18.0288 
  92   0.0000       0.679909        18.5013 
  93   0.0000       0.681989        18.5579 
  94   0.0000       0.692843        18.8532 
  95   0.0000       0.705803        19.2059 
  96   0.0000       0.730211        19.8700 
  97   0.0000       0.746017        20.3002 
  98   0.0000       0.763559        20.7775 
  99   0.0000       0.772683        21.0258 
 100   0.0000       0.787408        21.4265 
 101   0.0000       0.801566        21.8117 
 102   0.0000       0.826062        22.4783 
 103   0.0000       0.842291        22.9199 
 104   0.0000       0.858764        23.3681 
 105   0.0000       0.875763        23.8307 
 106   0.0000       0.894668        24.3452 
 107   0.0000       0.901440        24.5294 
 108   0.0000       0.925444        25.1826 
 109   0.0000       0.941848        25.6290 
 110   0.0000       0.954959        25.9858 
 111   0.0000       0.976282        26.5660 
 112   0.0000       0.987077        26.8597 
 113   0.0000       0.994838        27.0709 
 114   0.0000       1.006622        27.3916 
 115   0.0000       1.024013        27.8648 
 116   0.0000       1.026609        27.9355 
 117   0.0000       1.034642        28.1541 
 118   0.0000       1.059325        28.8257 
 119   0.0000       1.088909        29.6307 
 120   0.0000       1.092471        29.7277 
 121   0.0000       1.096762        29.8444 
 122   0.0000       1.125652        30.6305 
 123   0.0000       1.150315        31.3017 
 124   0.0000       1.171837        31.8873 
 125   0.0000       1.194247        32.4971 
 126   0.0000       1.220565        33.2133 
 127   0.0000       1.260008        34.2866 
 128   0.0000       1.287815        35.0432 
 129   0.0000       1.306188        35.5432 
 130   0.0000       1.338786        36.4302 
 131   0.0000       1.343539        36.5596 
 132   0.0000       1.373453        37.3736 
 133   0.0000       1.380599        37.5680 
 134   0.0000       1.393353        37.9151 
 135   0.0000       1.430635        38.9296 
 136   0.0000       1.435335        39.0574 
 137   0.0000       1.471093        40.0305 
 138   0.0000       1.478066        40.2202 
 139   0.0000       1.486125        40.4395 
 140   0.0000       1.490186        40.5500 
 141   0.0000       1.494866        40.6774 
 142   0.0000       1.517954        41.3056 
 143   0.0000       1.525038        41.4984 
 144   0.0000       1.540737        41.9256 
 145   0.0000       1.544987        42.0412 
 146   0.0000       1.570688        42.7406 
 147   0.0000       1.584524        43.1171 
 148   0.0000       1.600664        43.5563 
 149   0.0000       1.607803        43.7505 
 150   0.0000       1.641518        44.6680 
 151   0.0000       1.644325        44.7444 
 152   0.0000       1.654740        45.0278 
 153   0.0000       1.669486        45.4290 
 154   0.0000       1.675230        45.5853 
 155   0.0000       1.679891        45.7121 
 156   0.0000       1.703144        46.3449 
 157   0.0000       1.714302        46.6485 
 158   0.0000       1.720976        46.8301 
 159   0.0000       1.735982        47.2385 
 160   0.0000       1.766339        48.0645 
 161   0.0000       1.773160        48.2501 
 162   0.0000       1.799211        48.9590 
 163   0.0000       1.807819        49.1933 
 164   0.0000       1.838222        50.0206 
 165   0.0000       1.846522        50.2464 
 166   0.0000       1.894606        51.5549 
 167   0.0000       1.896737        51.6128 
 168   0.0000       1.905956        51.8637 
 169   0.0000       1.915533        52.1243 
 170   0.0000       1.918032        52.1923 
 171   0.0000       1.950947        53.0880 
 172   0.0000       2.004398        54.5424 
 173   0.0000       2.010054        54.6964 
 174   0.0000       2.021625        55.0112 
 175   0.0000       2.036467        55.4151 
 176   0.0000       2.065593        56.2076 
 177   0.0000       2.077219        56.5240 
 178   0.0000       2.103985        57.2523 
 179   0.0000       2.138585        58.1939 
 180   0.0000       2.158302        58.7304 
 181   0.0000       2.167343        58.9764 
 182   0.0000       2.184151        59.4338 
 183   0.0000       2.223552        60.5059 
 184   0.0000       2.239342        60.9356 
 185   0.0000       2.250867        61.2492 
 186   0.0000       2.280676        62.0604 
 187   0.0000       2.291613        62.3579 
 188   0.0000       2.302302        62.6488 
 189   0.0000       2.311730        62.9054 
 190   0.0000       2.327761        63.3416 
 191   0.0000       2.380580        64.7789 
 192   0.0000       2.393480        65.1299 
 193   0.0000       2.397698        65.2447 
 194   0.0000       2.432481        66.1912 
 195   0.0000       2.437323        66.3229 
 196   0.0000       2.492767        67.8316 
 197   0.0000       2.504924        68.1624 
 198   0.0000       2.546971        69.3066 
 199   0.0000       2.579629        70.1953 
 200   0.0000       2.601892        70.8011 
 201   0.0000       2.614529        71.1449 
 202   0.0000       2.658358        72.3376 
 203   0.0000       2.684215        73.0412 
 204   0.0000       2.709605        73.7321 
 205   0.0000       2.740818        74.5815 
 206   0.0000       2.748999        74.8041 
 207   0.0000       2.765893        75.2638 
 208   0.0000       2.806891        76.3794 
 209   0.0000       2.895029        78.7777 
 210   0.0000       2.917977        79.4022 
 211   0.0000       2.971600        80.8614 
 212   0.0000       3.018105        82.1268 
 213   0.0000       3.108112        84.5760 
 214   0.0000       3.205061        87.2142 
 215   0.0000       3.296880        89.7127 
 216   0.0000       3.316266        90.2402 
 217   0.0000       3.489294        94.9485 
 218   0.0000       3.563387        96.9647 
-------
TIMINGS
-------

Total SCF time: 0 days 0 hours 0 min 38 sec 

Total time                  ....      38.501 sec
Sum of individual times     ....      38.370 sec  ( 99.7%)

Fock matrix formation       ....      36.073 sec  ( 93.7%)
  Split-RI-J                ....       5.400 sec  ( 15.0% of F)
  Chain of spheres X        ....      28.247 sec  ( 78.3% of F)
  COS-X 1 center corr.      ....       0.000 sec  (  0.0% of F)
  XC integration            ....       2.302 sec  (  6.4% of F)
    Basis function eval.    ....       0.849 sec  ( 36.9% of XC)
    Density eval.           ....       0.395 sec  ( 17.2% of XC)
    XC-Functional eval.     ....       0.093 sec  (  4.0% of XC)
    XC-Potential eval.      ....       0.759 sec  ( 33.0% of XC)
Diagonalization             ....       0.110 sec  (  0.3%)
Density matrix formation    ....       0.040 sec  (  0.1%)
Population analysis         ....       0.000 sec  (  0.0%)
Initial guess               ....       0.361 sec  (  0.9%)
Orbital Transformation      ....       0.000 sec  (  0.0%)
Orbital Orthonormalization  ....       0.000 sec  (  0.0%)
DIIS solution               ....       0.036 sec  (  0.1%)
SOSCF solution              ....       0.192 sec  (  0.5%)
Grid generation             ....       1.557 sec  (  4.0%)


-------------------------------------------------------------------------------
                          DFT DISPERSION CORRECTION                            
                                                                               
                              DFTD3 V3.1  Rev 1                                
                          USING Becke-Johnson damping                          
-------------------------------------------------------------------------------
The B3LYP functional is recognized
Active option DFTDOPT                   ...         4   

molecular C6(AA) [au] = 5349.160568 


            DFT-D V3
 parameters
 s6 scaling factor         :     1.0000 
 a1 scaling factor         :     0.3981 
 s8 scaling factor         :     1.9889 
 a2 scaling factor         :     4.4211 
 ad hoc parameters k1-k3   :    16.0000     1.3333    -4.0000 

 Edisp/kcal,au: -22.606146130576  -0.036025183130 
 E6   /kcal   : -11.037232170 
 E8   /kcal   : -11.568913961 
 % E8         :  51.175967340 

-------------------------   ----------------
Dispersion correction           -0.036025183
-------------------------   ----------------


-------------------------   --------------------
FINAL SINGLE POINT ENERGY      -513.790047446519
-------------------------   --------------------



           ************************************************************
           *        Program running with 6 parallel MPI-processes     *
           *              working on a common directory               *
           ************************************************************
------------------------------------------------------------------------------
                         ORCA SCF GRADIENT CALCULATION
------------------------------------------------------------------------------

Gradient of the Kohn-Sham DFT energy:
Kohn-Sham wavefunction type      ... RKS
Hartree-Fock exchange scaling    ...    0.200
Number of operators              ...    1
Number of atoms                  ...   24
Basis set dimensions             ...  219
Integral neglect threshold       ... 2.5e-11
Integral primitive cutoff        ... 2.5e-12

Nuclear repulsion gradient       ... done
One Electron Gradient            ... done
Pre-screening matrix             ... done
RI-J gradient                    ... done
COSX-gradient                    ... done
Exchange-correlation gradient    ... done
Dispersion correction            ... done

------------------
CARTESIAN GRADIENT
------------------

   1   C   :    0.006221036   -0.000635762    0.002312938
   2   C   :    0.005862536   -0.015283328   -0.007195730
   3   N   :   -0.007961920    0.011588752    0.000727787
   4   N   :   -0.009379002   -0.006291899   -0.000228630
   5   C   :   -0.000463944    0.011679653    0.001796429
   6   N   :    0.005051930    0.007425311   -0.001894097
   7   C   :    0.000527230   -0.033585473    0.002642335
   8   O   :   -0.000734023    0.019348436   -0.000886158
   9   C   :    0.010655201    0.002647945   -0.001234330
  10   C   :    0.003317926   -0.002884314    0.001054368
  11   C   :   -0.004499417    0.007251750   -0.000853473
  12   H   :   -0.004138469    0.005679118   -0.000035027
  13   H   :   -0.006096333    0.002637567    0.001115784
  14   H   :    0.005581664    0.002247593    0.001260762
  15   H   :    0.001153710   -0.001598864    0.003008221
  16   H   :   -0.003676982    0.000150148   -0.000534515
  17   H   :    0.004431242   -0.006031980   -0.000270910
  18   H   :    0.008470903   -0.000831752    0.000371337
  19   H   :   -0.010990320   -0.003197593    0.000496176
  20   H   :   -0.004446143    0.004825754    0.001159581
  21   H   :    0.003770128   -0.002357267    0.000016059
  22   H   :   -0.004542605    0.003756035   -0.001369823
  23   H   :   -0.003981870   -0.005455774    0.000098954
  24   H   :    0.004317665    0.000943941    0.000263358

Difference to translation invariance:
           :   -0.0015498551    0.0020279956    0.0018213943

Norm of the cartesian gradient     ...    0.0568012483
RMS gradient                       ...    0.0066940913
MAX gradient                       ...    0.0335854734

-------
TIMINGS
-------

Total SCF gradient time            ...        8.124 sec

One electron gradient       ....       0.186 sec  (  2.3%)
Prescreening matrices       ....       0.158 sec  (  1.9%)
RI-J Coulomb gradient       ....       1.333 sec  ( 16.4%)
COSX gradient               ....       3.912 sec  ( 48.1%)
XC gradient                 ....       2.021 sec  ( 24.9%)
------------------------------------------------------------------------------
                         ORCA GEOMETRY RELAXATION STEP
------------------------------------------------------------------------------

Reading the OPT-File                    .... done
Getting information on internals        .... done
Copying old internal coords+grads       .... done
Making the new internal coordinates     .... (new redundants).... done
Validating the new internal coordinates .... (new redundants).... done
Calculating the B-matrix                .... done
Calculating the G,G- and P matrices     .... done
Transforming gradient to internals      .... done
Projecting the internal gradient        .... done
Number of atoms                         ....  24
Number of internal coordinates          .... 118
Current Energy                          ....  -513.790047447 Eh
Current gradient norm                   ....     0.056801248 Eh/bohr
Maximum allowed component of the step   ....  0.300
Current trust radius                    ....  0.300
Evaluating the initial hessian          ....  (Almloef) done
Projecting the Hessian                  .... done
Forming the augmented Hessian           .... done
Diagonalizing the augmented Hessian     .... done
Last element of RFO vector              ....  0.959072330
Lowest eigenvalues of augmented Hessian:
 -0.007861213  0.012111903  0.012418686  0.012545329  0.015513501
Length of the computed step             ....  0.295244885
The final length of the internal step   ....  0.295244885
Converting the step to cartesian space:
 Initial RMS(Int)=    0.0271794947
Transforming coordinates:
 Iter   0:  RMS(Cart)=    0.0961095201 RMS(Int)=    1.1538414451
 Iter   1:  RMS(Cart)=    0.0031791782 RMS(Int)=    0.0010686284
 Iter   2:  RMS(Cart)=    0.0001282668 RMS(Int)=    0.0000375123
 Iter   3:  RMS(Cart)=    0.0000086186 RMS(Int)=    0.0000033268
 Iter   4:  RMS(Cart)=    0.0000003829 RMS(Int)=    0.0000001305
 Iter   5:  RMS(Cart)=    0.0000000257 RMS(Int)=    0.0000000104
done
Storing new coordinates                 .... done

                                .--------------------.
          ----------------------|Geometry convergence|-------------------------
          Item                value                   Tolerance       Converged
          ---------------------------------------------------------------------
          RMS gradient        0.0044127671            0.0020000000      NO
          MAX gradient        0.0179438136            0.0030000000      NO
          RMS step            0.0271794947            0.0200000000      NO
          MAX step            0.1674991830            0.0300000000      NO
          ........................................................
          Max(Bonds)      0.0886      Max(Angles)    2.82
          Max(Dihed)        3.07      Max(Improp)    0.00
          ---------------------------------------------------------------------

The optimization has not yet converged - more geometry cycles are needed


    ---------------------------------------------------------------------------
                         Redundant Internal Coordinates
                            (Angstroem and degrees)

        Definition                    Value    dE/dq     Step     New-Value
    ----------------------------------------------------------------------------
     1. B(C   1,C   0)                1.4942  0.002894 -0.0035    1.4906   
     2. B(N   2,C   1)                1.3599 -0.005535  0.0071    1.3670   
     3. B(N   3,C   1)                1.2968 -0.002544  0.0034    1.3001   
     4. B(C   4,C   0)                1.3394  0.004694 -0.0033    1.3361   
     5. B(C   6,N   5)                1.3550  0.005435 -0.0014    1.3536   
     6. B(O   7,C   6)                1.2284 -0.015858  0.0099    1.2383   
     7. B(C   8,C   6)                1.4982 -0.005139  0.0064    1.5045   
     8. B(C   9,C   8)                1.5036 -0.002190  0.0028    1.5064   
     9. B(C  10,C   8)                1.3447  0.004413 -0.0031    1.3416   
    10. B(H  11,C   0)                1.0860 -0.006725  0.0095    1.0955   
    11. B(H  12,N   2)                1.0121 -0.003767  0.0046    1.0167   
    12. B(H  13,O   7)                1.8254 -0.001571  0.0188    1.8442   
    13. B(H  13,N   2)                1.0255 -0.007591  0.0094    1.0350   
    14. B(H  14,N   3)                1.0224 -0.000181  0.0002    1.0227   
    15. B(H  15,C   4)                1.0873 -0.003634  0.0052    1.0925   
    16. B(H  16,C   4)                1.0828 -0.007382  0.0103    1.0932   
    17. B(H  17,N   5)                1.0044 -0.004735  0.0056    1.0100   
    18. B(H  18,H  13)                2.2681 -0.007931  0.0791    2.3472   
    19. B(H  18,N   3)                1.7664 -0.006053  0.0886    1.8550   
    20. B(H  18,N   5)                1.0269 -0.017180  0.0223    1.0492   
    21. B(H  19,C   9)                1.0948 -0.004749  0.0069    1.1017   
    22. B(H  20,C   9)                1.0952 -0.003901  0.0057    1.1009   
    23. B(H  21,C   9)                1.0952 -0.004174  0.0061    1.1014   
    24. B(H  22,C  10)                1.0827 -0.006538  0.0092    1.0918   
    25. B(H  23,C  10)                1.0870 -0.004449  0.0063    1.0933   
    26. A(C   1,C   0,H  11)          115.08 -0.001370    0.23    115.31   
    27. A(C   4,C   0,H  11)          119.47  0.001579   -0.24    119.22   
    28. A(C   1,C   0,C   4)          125.44 -0.000217    0.03    125.47   
    29. A(C   0,C   1,N   3)          123.74 -0.010157    1.05    124.79   
    30. A(C   0,C   1,N   2)          119.38  0.017944   -2.82    116.56   
    31. A(N   2,C   1,N   3)          116.89 -0.007786    1.76    118.65   
    32. A(H  12,N   2,H  13)          110.61 -0.004741    1.15    111.75   
    33. A(C   1,N   2,H  13)          114.04  0.003422    0.19    114.23   
    34. A(C   1,N   2,H  12)          117.22  0.000988   -0.50    116.72   
    35. A(H  14,N   3,H  18)          127.49 -0.001562    0.28    127.76   
    36. A(C   1,N   3,H  18)          121.05  0.006348   -0.78    120.27   
    37. A(C   1,N   3,H  14)          110.19 -0.004921    0.72    110.91   
    38. A(H  15,C   4,H  16)          116.39 -0.001082    0.19    116.58   
    39. A(C   0,C   4,H  16)          123.75  0.003062   -0.48    123.27   
    40. A(C   0,C   4,H  15)          119.86 -0.001981    0.29    120.16   
    41. A(H  17,N   5,H  18)          116.15 -0.006581    0.77    116.93   
    42. A(C   6,N   5,H  18)          117.70 -0.000330    0.71    118.41   
    43. A(C   6,N   5,H  17)          125.33  0.006968   -1.49    123.84   
    44. A(O   7,C   6,C   8)          121.70  0.013437   -2.19    119.51   
    45. A(N   5,C   6,C   8)          117.70 -0.011592    1.11    118.81   
    46. A(N   5,C   6,O   7)          120.60 -0.001845    1.08    121.68   
    47. A(C   6,O   7,H  13)          116.83  0.001730    0.80    117.63   
    48. A(C   9,C   8,C  10)          121.35 -0.004813    0.66    122.02   
    49. A(C   6,C   8,C  10)          124.20  0.001746   -0.22    123.98   
    50. A(C   6,C   8,C   9)          114.44  0.003067   -0.44    114.00   
    51. A(H  20,C   9,H  21)          107.58 -0.002510    0.69    108.27   
    52. A(H  19,C   9,H  21)          108.61  0.003568   -1.22    107.39   
    53. A(C   8,C   9,H  21)          110.99  0.000237   -0.18    110.80   
    54. A(H  19,C   9,H  20)          107.42 -0.002217    0.73    108.15   
    55. A(C   8,C   9,H  20)          111.78  0.002168   -0.13    111.65   
    56. A(C   8,C   9,H  19)          110.33 -0.001272    0.11    110.44   
    57. A(H  22,C  10,H  23)          115.51 -0.001515    0.27    115.78   
    58. A(C   8,C  10,H  23)          120.50 -0.000330    0.03    120.53   
    59. A(C   8,C  10,H  22)          123.99  0.001843   -0.30    123.69   
    60. A(O   7,H  13,H  18)           73.08 -0.002742   -0.74     72.34   
    61. A(N   2,H  13,H  18)          114.84  0.001799    0.20    115.04   
    62. A(N   2,H  13,O   7)          170.88  0.001100    0.63    171.51   
    63. A(N   3,H  18,H  13)           71.45 -0.003683   -1.60     69.85   
    64. A(N   5,H  18,H  13)          110.40  0.003103   -1.79    108.61   
    65. D(N   2,C   1,C   0,C   4)    179.98  0.000493   -0.36    179.62   
    66. D(N   3,C   1,C   0,C   4)      0.01 -0.001180    1.80      1.81   
    67. D(N   3,C   1,C   0,H  11)   -178.86 -0.000740    1.06   -177.80   
    68. D(N   2,C   1,C   0,H  11)      1.11  0.000933   -1.11      0.00   
    69. D(H  12,N   2,C   1,N   3)   -146.88  0.003642   -2.56   -149.44   
    70. D(H  13,N   2,C   1,C   0)    164.68 -0.000474    0.89    165.57   
    71. D(H  13,N   2,C   1,N   3)    -15.35  0.001085   -1.13    -16.48   
    72. D(H  12,N   2,C   1,C   0)     33.15  0.002084   -0.54     32.61   
    73. D(H  18,N   3,C   1,N   2)     12.88 -0.000833    1.68     14.56   
    74. D(H  18,N   3,C   1,C   0)   -167.15  0.000809   -0.43   -167.59   
    75. D(H  14,N   3,C   1,C   0)      0.89 -0.000162    0.61      1.50   
    76. D(H  14,N   3,C   1,N   2)   -179.08 -0.001804    2.73   -176.35   
    77. D(H  15,C   4,C   0,H  11)     -0.62 -0.000005    0.11     -0.51   
    78. D(H  16,C   4,C   0,C   1)      0.44 -0.000019   -0.08      0.36   
    79. D(H  15,C   4,C   0,C   1)   -179.44  0.000483   -0.67   -180.11   
    80. D(H  16,C   4,C   0,H  11)    179.26 -0.000507    0.70    179.96   
    81. D(H  17,N   5,N   3,H  14)     23.12  0.000439   -2.13     20.99   
    82. D(H  17,N   5,N   3,C   1)   -170.97 -0.000554   -0.66   -171.63   
    83. D(C   6,N   5,N   3,H  14)   -166.58  0.000979   -3.07   -169.65   
    84. D(C   6,N   5,N   3,C   1)     -0.67 -0.000014   -1.60     -2.27   
    85. D(C   8,C   6,N   5,H  18)   -176.03  0.000138   -0.20   -176.23   
    86. D(O   7,C   6,N   5,H  18)      3.87 -0.000127    0.03      3.90   
    87. D(O   7,C   6,N   5,H  17)    173.06 -0.000514    0.06    173.13   
    88. D(C   8,C   6,N   5,H  17)     -6.84 -0.000250   -0.16     -7.00   
    89. D(H  13,O   7,C   6,C   8)    167.42 -0.000495    0.21    167.63   
    90. D(H  13,O   7,C   6,N   5)    -12.48 -0.000195   -0.03    -12.51   
    91. D(C  10,C   8,C   6,O   7)   -179.93  0.000578   -1.45   -181.37   
    92. D(C  10,C   8,C   6,N   5)     -0.02  0.000295   -1.21     -1.24   
    93. D(C   9,C   8,C   6,O   7)      0.10  0.000745   -1.78     -1.68   
    94. D(C   9,C   8,C   6,N   5)   -180.00  0.000462   -1.54   -181.54   
    95. D(H  19,C   9,C   8,C   6)    -60.40 -0.002143    1.15    -59.26   
    96. D(H  21,C   9,C   8,C  10)   -119.93  0.001809   -0.75   -120.68   
    97. D(H  21,C   9,C   8,C   6)     60.04  0.001650   -0.43     59.61   
    98. D(H  20,C   9,C   8,C  10)      0.17  0.000244   -0.08      0.09   
    99. D(H  20,C   9,C   8,C   6)   -179.86  0.000085    0.24   -179.62   
   100. D(H  19,C   9,C   8,C  10)    119.63 -0.001984    0.83    120.45   
   101. D(H  23,C  10,C   8,C   9)      0.04  0.000138   -0.10     -0.06   
   102. D(H  23,C  10,C   8,C   6)   -179.93  0.000313   -0.45   -180.39   
   103. D(H  22,C  10,C   8,C   9)    179.39 -0.000104    0.20    179.59   
   104. D(H  22,C  10,C   8,C   6)     -0.58  0.000071   -0.16     -0.73   
   105. D(H  18,H  13,O   7,C   6)     10.11  0.000437   -0.20      9.91   
   106. D(N   2,H  13,O   7,C   6)    161.14  0.000595   -0.11    161.04   
   107. D(H  18,H  13,N   2,H  12)    145.09  0.000574    0.50    145.60   
   108. D(H  18,H  13,N   2,C   1)     10.44  0.000548   -0.09     10.35   
   109. D(O   7,H  13,N   2,H  12)     -4.21  0.000404    0.33     -3.88   
   110. D(O   7,H  13,N   2,C   1)   -138.87  0.000378   -0.26   -139.13   
   111. D(N   3,H  18,H  13,O   7)    171.62  0.000422    1.00    172.62   
   112. D(N   3,H  18,H  13,N   2)     -3.53 -0.000113    0.66     -2.87   
   113. D(N   5,H  18,H  13,O   7)     -8.51 -0.000310    0.36     -8.15   
   114. D(N   5,H  18,H  13,N   2)    176.35 -0.000845    0.02    176.37   
   115. D(H  13,H  18,N   5,H  17)   -165.40 -0.000512   -0.07   -165.47   
   116. D(H  13,H  18,N   5,C   6)      4.78  0.000550   -0.28      4.50   
   117. D(H  13,H  18,N   3,H  14)   -171.22  0.001085   -2.26   -173.49   
   118. D(H  13,H  18,N   3,C   1)     -5.41 -0.000229   -1.00     -6.41   
    ----------------------------------------------------------------------------

         *************************************************************
         *                GEOMETRY OPTIMIZATION CYCLE   2            *
         *************************************************************
---------------------------------
CARTESIAN COORDINATES (ANGSTROEM)
---------------------------------
  C      3.122243   -0.615158    0.043551
  C      1.645805   -0.520348   -0.138377
  N      0.979560   -1.694783   -0.351263
  N      0.969439    0.589910   -0.148110
  C      3.945243    0.416118    0.254300
  N     -1.929385    0.513292    0.006380
  C     -2.521233   -0.703536    0.039336
  O     -1.857953   -1.748009    0.088227
  C     -4.023677   -0.779880    0.018850
  C     -4.565912   -2.185270    0.022119
  C     -4.828748    0.293014   -0.006555
  H      3.536862   -1.627693   -0.011568
  H      1.354727   -2.522442    0.104657
  H     -0.046948   -1.626834   -0.238352
  H      1.589343    1.395779   -0.038040
  H      5.017316    0.246291    0.378077
  H      3.603384    1.452354    0.320349
  H     -2.430605    1.378941   -0.133520
  H     -0.882163    0.557883   -0.039718
  H     -4.199619   -2.740993   -0.855863
  H     -5.666571   -2.195988   -0.000067
  H     -4.233322   -2.730773    0.919226
  H     -4.465838    1.322770   -0.003072
  H     -5.915146    0.171855   -0.026868

----------------------------
CARTESIAN COORDINATES (A.U.)
----------------------------
  NO LB      ZA    FRAG     MASS         X           Y           Z
   0 C     6.0000    0    12.011    5.900184   -1.162480    0.082300
   1 C     6.0000    0    12.011    3.110121   -0.983315   -0.261494
   2 N     7.0000    0    14.007    1.851101   -3.202675   -0.663792
   3 N     7.0000    0    14.007    1.831975    1.114768   -0.279887
   4 C     6.0000    0    12.011    7.455428    0.786349    0.480558
   5 N     7.0000    0    14.007   -3.646009    0.969981    0.012057
   6 C     6.0000    0    12.011   -4.764440   -1.329491    0.074334
   7 O     8.0000    0    15.999   -3.511022   -3.303259    0.166724
   8 C     6.0000    0    12.011   -7.603648   -1.473759    0.035621
   9 C     6.0000    0    12.011   -8.628323   -4.129561    0.041799
  10 C     6.0000    0    12.011   -9.125012    0.553717   -0.012387
  11 H     1.0000    0     1.008    6.683701   -3.075893   -0.021860
  12 H     1.0000    0     1.008    2.560063   -4.766725    0.197772
  13 H     1.0000    0     1.008   -0.088719   -3.074271   -0.450419
  14 H     1.0000    0     1.008    3.003423    2.637641   -0.071886
  15 H     1.0000    0     1.008    9.481353    0.465423    0.714463
  16 H     1.0000    0     1.008    6.809408    2.744551    0.605372
  17 H     1.0000    0     1.008   -4.593179    2.605822   -0.252316
  18 H     1.0000    0     1.008   -1.667047    1.054246   -0.075055
  19 H     1.0000    0     1.008   -7.936130   -5.179727   -1.617347
  20 H     1.0000    0     1.008  -10.708268   -4.149816   -0.000127
  21 H     1.0000    0     1.008   -7.999820   -5.160413    1.737085
  22 H     1.0000    0     1.008   -8.439211    2.499672   -0.005805
  23 H     1.0000    0     1.008  -11.178006    0.324758   -0.050773

--------------------------------
INTERNAL COORDINATES (ANGSTROEM)
--------------------------------
 C      0   0   0     0.000000000000     0.00000000     0.00000000
 C      1   0   0     1.490622400219     0.00000000     0.00000000
 N      2   1   0     1.366930977349   116.55932627     0.00000000
 N      2   1   3     1.300091021391   124.78687599   182.17107129
 C      1   2   3     1.336141377331   125.46812460   179.62867876
 N      4   2   1     2.903948775775   119.76192941   192.00465247
 C      6   4   2     1.353529105913   117.48433309   357.74593042
 O      7   6   4     1.238246942714   121.67196033     4.51035947
 C      7   6   4     1.504521971472   118.81255495   184.37044130
 C      9   7   6     1.506369744153   114.00245479   178.46170621
 C      9   7   6     1.341598228536   123.98202668   358.76080821
[...]
Final contraction and storage  ... done (      0.0 sec)

Time for X-Grid setup             =    0.473 sec
--------------
SCF ITERATIONS
--------------
ITER       Energy         Delta-E        Max-DP      RMS-DP      [F,P]     Damp
               ***  Starting incremental Fock matrix formation  ***
                      *** Initiating the SOSCF procedure ***
                      *** Re-Reading the Fockian *** 
                      *** Removing any level shift *** 
ITER      Energy       Delta-E        Grad      Rot      Max-DP    RMS-DP
  0   -513.76281200 -513.7628119958  0.000996  0.000996  0.002799  0.000067
               *** Restarting incremental Fock matrix formation ***
  1   -513.76288771  -0.0000757144  0.000294  0.000858  0.000959  0.000030
  2   -513.76289639  -0.0000086786  0.000072  0.000245  0.000440  0.000011
  3   -513.76289595   0.0000004353  0.000126  0.000198  0.000324  0.000006
  4   -513.76289678  -0.0000008234  0.000022  0.000092  0.000119  0.000002
  5   -513.76289674   0.0000000380  0.000034  0.000059  0.000078  0.000001
  6   -513.76289679  -0.0000000549  0.000004  0.000018  0.000023  0.000000
                 **** Energy Check signals convergence ****
              ***Rediagonalizing the Fockian in SOSCF/NRSCF***

               *****************************************************
               *                     SUCCESS                       *
               *           SCF CONVERGED AFTER   7 CYCLES          *
               *****************************************************

Setting up the final grid:

General Integration Accuracy     IntAcc      ...  4.670
Radial Grid Type                 RadialGrid  ... Gauss-Chebyshev
Angular Grid (max. acc.)         AngularGrid ... Lebedev-302
Angular grid pruning method      GridPruning ... 3 (G Style)
Weight generation scheme         WeightScheme... Becke
Basis function cutoff            BFCut       ...    1.0000e-11
Integration weight cutoff        WCut        ...    1.0000e-14
Grids for H and He will be reduced by one unit

# of grid points (after initial pruning)     ... 112454 (   0.0 sec)
# of grid points (after weights+screening)   ... 102196 (   0.2 sec)
nearest neighbour list constructed           ...    0.0 sec
Grid point re-assignment to atoms done       ...    0.0 sec
Grid point division into batches done        ...    0.5 sec
Reduced shell lists constructed in    0.7 sec

Total number of grid points                  ...   102196
Total number of batches                      ...     1611
Average number of points per batch           ...       63
Average number of grid points per atom       ...     4258
Average number of shells per batch           ...    66.18 (63.03%)
Average number of basis functions per batch  ...   132.26 (60.39%)
Average number of large shells per batch     ...    45.71 (69.07%)
Average number of large basis fcns per batch ...    92.96 (70.29%)
Maximum spatial batch extension              ...   3.90,  9.82, 12.50 au
Average spatial batch extension              ...   0.21,  0.22,  0.25 au

Final grid set up in    0.9 sec
Final integration                            ... done (   0.4 sec)
Change in XC energy                          ...     0.000035206
Integrated number of electrons               ...    83.999776225
Previous integrated no of electrons          ...    84.004491402
Old exchange energy                            =    -13.783155171 Eh
New exchange energy                            =    -13.782671524 Eh
Exchange energy change after final integration =      0.000483648 Eh
Total energy after final integration           =   -513.762377940 Eh
Final COS-X integration done in                =     3.745 sec

----------------
TOTAL SCF ENERGY
----------------

Total Energy       :         -513.76237794 Eh          -13980.18504 eV

Components:
Nuclear Repulsion  :          574.83896626 Eh           15642.16350 eV
Electronic Energy  :        -1088.60134420 Eh          -29622.34855 eV
One Electron Energy:        -1837.06693290 Eh          -49989.13264 eV
Two Electron Energy:          748.46558870 Eh           20366.78410 eV

Virial components:
Potential Energy   :        -1024.19663144 Eh          -27869.80722 eV
Kinetic Energy     :          510.43425350 Eh           13889.62217 eV
Virial Ratio       :            2.00652018


DFT components:
N(Alpha)           :       41.999888112300 electrons
N(Beta)            :       41.999888112300 electrons
N(Total)           :       83.999776224600 electrons
E(X)               :      -54.755869705417 Eh       
E(C)               :       -3.320304561343 Eh       
E(XC)              :      -58.076174266760 Eh       

---------------
SCF CONVERGENCE
---------------

  Last Energy change         ...    1.6632e-10  Tolerance :   1.0000e-08
  Last MAX-Density change    ...    1.6015e-13  Tolerance :   1.0000e-07
  Last RMS-Density change    ...    8.7142e-16  Tolerance :   5.0000e-09
  Last Orbital Gradient      ...    8.7758e-06  Tolerance :   1.0000e-05
  Last Orbital Rotation      ...    1.4082e-05  Tolerance :   1.0000e-05

             **** THE GBW FILE WAS UPDATED (AT-v/e/frag_32_c00001.gbw) ****
             **** DENSITY FILE WAS UPDATED (AT-v/e/frag_32_c00001.scfp.tmp) ****
             **** ENERGY FILE WAS UPDATED (AT-v/e/frag_32_c00001.en.tmp) ****
----------------
ORBITAL ENERGIES
----------------

  NO   OCC          E(Eh)            E(eV) 
   0   2.0000     -19.096271      -519.6360 
   1   2.0000     -14.322149      -389.7255 
   2   2.0000     -14.318587      -389.6286 
   3   2.0000     -14.284749      -388.7078 
   4   2.0000     -10.275483      -279.6101 
   5   2.0000     -10.253712      -279.0177 
   6   2.0000     -10.202844      -277.6335 
   7   2.0000     -10.201077      -277.5854 
   8   2.0000     -10.197622      -277.4914 
   9   2.0000     -10.186709      -277.1945 
  10   2.0000     -10.175876      -276.8997 
  11   2.0000      -1.018286       -27.7090 
  12   2.0000      -0.932891       -25.3853 
  13   2.0000      -0.883202       -24.0331 
  14   2.0000      -0.835411       -22.7327 
  15   2.0000      -0.793427       -21.5902 
  16   2.0000      -0.775022       -21.0894 
  17   2.0000      -0.682621       -18.5751 
  18   2.0000      -0.632638       -17.2150 
  19   2.0000      -0.614347       -16.7172 
  20   2.0000      -0.556487       -15.1428 
  21   2.0000      -0.540454       -14.7065 
  22   2.0000      -0.514059       -13.9883 
  23   2.0000      -0.505952       -13.7676 
  24   2.0000      -0.487852       -13.2751 
  25   2.0000      -0.463275       -12.6064 
  26   2.0000      -0.444203       -12.0874 
  27   2.0000      -0.434828       -11.8323 
  28   2.0000      -0.420953       -11.4547 
  29   2.0000      -0.412799       -11.2328 
  30   2.0000      -0.398977       -10.8567 
  31   2.0000      -0.379586       -10.3291 
  32   2.0000      -0.376803       -10.2533 
  33   2.0000      -0.371652       -10.1132 
  34   2.0000      -0.363615        -9.8945 
  35   2.0000      -0.358814        -9.7638 
  36   2.0000      -0.277684        -7.5562 
  37   2.0000      -0.269401        -7.3308 
  38   2.0000      -0.259148        -7.0518 
  39   2.0000      -0.250914        -6.8277 
  40   2.0000      -0.241792        -6.5795 
  41   2.0000      -0.224452        -6.1076 
  42   0.0000      -0.031649        -0.8612 
  43   0.0000      -0.020590        -0.5603 
  44   0.0000       0.063993         1.7413 
  45   0.0000       0.071241         1.9386 
  46   0.0000       0.078211         2.1282 
  47   0.0000       0.082807         2.2533 
  48   0.0000       0.086753         2.3607 
  49   0.0000       0.097452         2.6518 
  50   0.0000       0.112201         3.0531 
  51   0.0000       0.117613         3.2004 
  52   0.0000       0.142398         3.8748 
  53   0.0000       0.150384         4.0922 
  54   0.0000       0.157560         4.2874 
  55   0.0000       0.165852         4.5131 
  56   0.0000       0.170140         4.6297 
  57   0.0000       0.211355         5.7513 
  58   0.0000       0.221485         6.0269 
  59   0.0000       0.247420         6.7326 
  60   0.0000       0.269209         7.3256 
  61   0.0000       0.296171         8.0592 
  62   0.0000       0.307358         8.3636 
  63   0.0000       0.321757         8.7554 
  64   0.0000       0.341451         9.2914 
  65   0.0000       0.365831         9.9548 
  66   0.0000       0.387418        10.5422 
  67   0.0000       0.401366        10.9217 
  68   0.0000       0.435858        11.8603 
  69   0.0000       0.442657        12.0453 
  70   0.0000       0.455081        12.3834 
  71   0.0000       0.467724        12.7274 
  72   0.0000       0.476212        12.9584 
  73   0.0000       0.481367        13.0987 
  74   0.0000       0.498759        13.5719 
  75   0.0000       0.504962        13.7407 
  76   0.0000       0.514115        13.9898 
  77   0.0000       0.525168        14.2905 
  78   0.0000       0.542262        14.7557 
  79   0.0000       0.548890        14.9361 
  80   0.0000       0.555468        15.1150 
  81   0.0000       0.556909        15.1543 
  82   0.0000       0.567177        15.4337 
  83   0.0000       0.571931        15.5630 
  84   0.0000       0.593445        16.1485 
  85   0.0000       0.597484        16.2584 
  86   0.0000       0.622926        16.9507 
  87   0.0000       0.629697        17.1349 
  88   0.0000       0.645247        17.5581 
  89   0.0000       0.652575        17.7575 
  90   0.0000       0.659021        17.9329 
  91   0.0000       0.664956        18.0944 
  92   0.0000       0.674254        18.3474 
  93   0.0000       0.677330        18.4311 
  94   0.0000       0.693888        18.8817 
  95   0.0000       0.711577        19.3630 
  96   0.0000       0.721084        19.6217 
  97   0.0000       0.733615        19.9627 
  98   0.0000       0.745904        20.2971 
  99   0.0000       0.751167        20.4403 
 100   0.0000       0.772883        21.0312 
 101   0.0000       0.796172        21.6649 
 102   0.0000       0.799045        21.7431 
 103   0.0000       0.811643        22.0859 
 104   0.0000       0.853907        23.2360 
 105   0.0000       0.862608        23.4728 
 106   0.0000       0.873588        23.7715 
 107   0.0000       0.903856        24.5952 
 108   0.0000       0.923451        25.1284 
 109   0.0000       0.953688        25.9512 
 110   0.0000       0.958276        26.0760 
 111   0.0000       0.979772        26.6610 
 112   0.0000       0.992758        27.0143 
 113   0.0000       1.002926        27.2910 
 114   0.0000       1.006919        27.3997 
 115   0.0000       1.022294        27.8180 
 116   0.0000       1.042975        28.3808 
 117   0.0000       1.044552        28.4237 
 118   0.0000       1.069569        29.1045 
 119   0.0000       1.073708        29.2171 
 120   0.0000       1.096081        29.8259 
 121   0.0000       1.106691        30.1146 
 122   0.0000       1.138328        30.9755 
 123   0.0000       1.164560        31.6893 
 124   0.0000       1.175144        31.9773 
 125   0.0000       1.191784        32.4301 
 126   0.0000       1.218494        33.1569 
 127   0.0000       1.267210        34.4825 
 128   0.0000       1.296616        35.2827 
 129   0.0000       1.299458        35.3601 
 130   0.0000       1.317657        35.8553 
 131   0.0000       1.340704        36.4824 
 132   0.0000       1.368777        37.2463 
 133   0.0000       1.373840        37.3841 
 134   0.0000       1.383743        37.6536 
 135   0.0000       1.409061        38.3425 
 136   0.0000       1.438298        39.1381 
 137   0.0000       1.458408        39.6853 
 138   0.0000       1.467184        39.9241 
 139   0.0000       1.474124        40.1129 
 140   0.0000       1.482857        40.3506 
 141   0.0000       1.493006        40.6268 
 142   0.0000       1.514263        41.2052 
 143   0.0000       1.517874        41.3034 
 144   0.0000       1.543328        41.9961 
 145   0.0000       1.554287        42.2943 
 146   0.0000       1.568253        42.6743 
 147   0.0000       1.580550        43.0089 
 148   0.0000       1.605667        43.6924 
 149   0.0000       1.624251        44.1981 
 150   0.0000       1.632418        44.4204 
 151   0.0000       1.637446        44.5572 
 152   0.0000       1.642009        44.6813 
 153   0.0000       1.654222        45.0137 
 154   0.0000       1.668289        45.3964 
 155   0.0000       1.683431        45.8085 
 156   0.0000       1.686970        45.9048 
 157   0.0000       1.708612        46.4937 
 158   0.0000       1.714472        46.6532 
 159   0.0000       1.724345        46.9218 
 160   0.0000       1.753851        47.7247 
 161   0.0000       1.780543        48.4510 
 162   0.0000       1.791393        48.7463 
 163   0.0000       1.817067        49.4449 
 164   0.0000       1.825637        49.6781 
 165   0.0000       1.831204        49.8296 
 166   0.0000       1.878402        51.1139 
 167   0.0000       1.886185        51.3257 
 168   0.0000       1.898636        51.6645 
 169   0.0000       1.918148        52.1955 
 170   0.0000       1.928788        52.4850 
 171   0.0000       1.944502        52.9126 
 172   0.0000       1.982464        53.9456 
 173   0.0000       1.998285        54.3761 
 174   0.0000       2.025151        55.1072 
 175   0.0000       2.038191        55.4620 
 176   0.0000       2.070801        56.3494 
 177   0.0000       2.088933        56.8427 
 178   0.0000       2.099593        57.1328 
 179   0.0000       2.131764        58.0082 
 180   0.0000       2.140820        58.2547 
 181   0.0000       2.160077        58.7787 
 182   0.0000       2.173642        59.1478 
 183   0.0000       2.194877        59.7256 
 184   0.0000       2.237764        60.8927 
 185   0.0000       2.246675        61.1351 
 186   0.0000       2.264071        61.6085 
 187   0.0000       2.269636        61.7599 
 188   0.0000       2.284172        62.1555 
 189   0.0000       2.317602        63.0652 
 190   0.0000       2.327575        63.3365 
 191   0.0000       2.355410        64.0940 
 192   0.0000       2.386101        64.9291 
 193   0.0000       2.409103        65.5550 
 194   0.0000       2.420835        65.8743 
 195   0.0000       2.434533        66.2470 
 196   0.0000       2.480965        67.5105 
 197   0.0000       2.502667        68.1010 
 198   0.0000       2.524788        68.7030 
 199   0.0000       2.561134        69.6920 
 200   0.0000       2.578127        70.1544 
 201   0.0000       2.599494        70.7358 
 202   0.0000       2.623610        71.3921 
 203   0.0000       2.647410        72.0397 
 204   0.0000       2.688860        73.1676 
 205   0.0000       2.703448        73.5646 
 206   0.0000       2.736461        74.4629 
 207   0.0000       2.753700        74.9320 
 208   0.0000       2.796862        76.1065 
 209   0.0000       2.866074        77.9898 
 210   0.0000       2.937518        79.9339 
 211   0.0000       2.943688        80.1018 
 212   0.0000       3.000955        81.6601 
 213   0.0000       3.095746        84.2395 
 214   0.0000       3.177479        86.4636 
 215   0.0000       3.265382        88.8556 
 216   0.0000       3.314330        90.1875 
 217   0.0000       3.452308        93.9421 
 218   0.0000       3.536499        96.2330 
-------
TIMINGS
-------

Total SCF time: 0 days 0 hours 0 min 22 sec 

Total time                  ....      22.964 sec
Sum of individual times     ....      22.855 sec  ( 99.5%)

Fock matrix formation       ....      21.083 sec  ( 91.8%)
  Split-RI-J                ....       2.945 sec  ( 14.0% of F)
  Chain of spheres X        ....      16.786 sec  ( 79.6% of F)
  COS-X 1 center corr.      ....       0.000 sec  (  0.0% of F)
  XC integration            ....       1.317 sec  (  6.2% of F)
    Basis function eval.    ....       0.487 sec  ( 37.0% of XC)
    Density eval.           ....       0.223 sec  ( 16.9% of XC)
    XC-Functional eval.     ....       0.053 sec  (  4.0% of XC)
    XC-Potential eval.      ....       0.403 sec  ( 30.6% of XC)
Diagonalization             ....       0.016 sec  (  0.1%)
Density matrix formation    ....       0.041 sec  (  0.2%)
Population analysis         ....       0.000 sec  (  0.0%)
Initial guess               ....       0.016 sec  (  0.1%)
Orbital Transformation      ....       0.000 sec  (  0.0%)
Orbital Orthonormalization  ....       0.011 sec  (  0.0%)
DIIS solution               ....       0.004 sec  (  0.0%)
SOSCF solution              ....       0.153 sec  (  0.7%)
Grid generation             ....       1.542 sec  (  6.7%)


-------------------------------------------------------------------------------
                          DFT DISPERSION CORRECTION                            
                                                                               
                              DFTD3 V3.1  Rev 1                                
                          USING Becke-Johnson damping                          
-------------------------------------------------------------------------------
The B3LYP functional is recognized
Active option DFTDOPT                   ...         4   

molecular C6(AA) [au] = 5350.416938 


            DFT-D V3
 parameters
 s6 scaling factor         :     1.0000 
 a1 scaling factor         :     0.3981 
 s8 scaling factor         :     1.9889 
 a2 scaling factor         :     4.4211 
 ad hoc parameters k1-k3   :    16.0000     1.3333    -4.0000 

 Edisp/kcal,au: -22.435052627465  -0.035752528307 
 E6   /kcal   : -10.951623216 
 E8   /kcal   : -11.483429411 
 % E8         :  51.185212720 

-------------------------   ----------------
Dispersion correction           -0.035752528
-------------------------   ----------------


-------------------------   --------------------
FINAL SINGLE POINT ENERGY      -513.798130468770
-------------------------   --------------------

                                *** OPTIMIZATION RUN DONE ***

                            ***************************************
                            *     ORCA property calculations      *
                            ***************************************

                                    ---------------------
                                    Active property flags
                                    ---------------------
   (+) Dipole Moment


------------------------------------------------------------------------------
                       ORCA ELECTRIC PROPERTIES CALCULATION
------------------------------------------------------------------------------

Dipole Moment Calculation                       ... on
Quadrupole Moment Calculation                   ... off
Polarizability Calculation                      ... off
GBWName                                         ... AT-v/e/frag_32_c00001.gbw
Electron density file                           ... AT-v/e/frag_32_c00001.scfp.tmp
The origin for moment calculation is the CENTER OF MASS  = (-1.581619, -1.117332  0.020289)

-------------
DIPOLE MOMENT
-------------
                                X             Y             Z
Electronic contribution:      2.12083      -0.20397       0.03487
Nuclear contribution   :     -1.67943       0.66310      -0.06079
                        -----------------------------------------
Total Dipole Moment    :      0.44140       0.45912      -0.02592
                        -----------------------------------------
Magnitude (a.u.)       :      0.63742
Magnitude (Debye)      :      1.62019


Timings for individual modules:

Sum of individual times         ...      499.633 sec (=   8.327 min)
GTO integral calculation        ...       12.081 sec (=   0.201 min)   2.4 %
SCF iterations                  ...      384.094 sec (=   6.402 min)  76.9 %
SCF Gradient evaluation         ...      100.781 sec (=   1.680 min)  20.2 %
Geometry relaxation             ...        2.677 sec (=   0.045 min)   0.5 %
                             ****ORCA TERMINATED NORMALLY****
TOTAL RUN TIME: 0 days 0 hours 8 minutes 23 seconds 776 msec
