
                                 *****************
                                 * O   R   C   A *
                                 *****************

           --- An Ab Initio, DFT and Semiempirical electronic structure package ---

                  #######################################################
                  #                        -***-                        #
                  #  Department of molecular theory and spectroscopy    #
                  #              Directorship: Frank Neese              #
                  # Max Planck Institute for Chemical Energy Conversion #
                  #                  D-45470 Muelheim/Ruhr              #
                  #                       Germany                       #
                  #                                                     #
                  #                  All rights reserved                #
                  #                        -***-                        #
                  #######################################################


                         Program Version 4.0.1.2 - RELEASE -


 With contributions from (in alphabetic order):
   Daniel Aravena         : Magnetic Properties
   Michael Atanasov       : Ab Initio Ligand Field Theory
   Ute Becker             : Parallelization
   Martin Brehm           : Molecular dynamics
   Dmytro Bykov           : SCF Hessian
   Vijay G. Chilkuri      : MRCI spin determinant printing
   Dipayan Datta          : RHF DLPNO-CCSD density
   Achintya Kumar Dutta   : EOM-CC, STEOM-CC
   Dmitry Ganyushin       : Spin-Orbit,Spin-Spin,Magnetic field MRCI
   Yang Guo               : DLPNO-NEVPT2, CIM, IAO-localization
   Andreas Hansen         : Spin unrestricted coupled pair/coupled cluster methods
   Lee Huntington         : MR-EOM, pCC
   Robert Izsak           : Overlap fitted RIJCOSX, COSX-SCS-MP3, EOM
   Christian Kollmar      : KDIIS, OOCD, Brueckner-CCSD(T), CCSD density
   Simone Kossmann        : Meta GGA functionals, TD-DFT gradient, OOMP2, MP2 Hessian
   Martin Krupicka        : AUTO-CI
   Dagmar Lenk            : GEPOL surface
   Dimitrios Liakos       : Extrapolation schemes; parallel MDCI
   Dimitrios Manganas     : ROCIS; embedding schemes
   Dimitrios Pantazis     : SARC Basis sets
   Taras Petrenko         : DFT Hessian,TD-DFT gradient, ASA, ECA, R-Raman, ABS, FL, XAS/XES, NRVS
   Peter Pinski           : DLPNO-MP2
   Christoph Reimann      : Effective Core Potentials
   Marius Retegan         : Local ZFS, SOC
   Christoph Riplinger    : Optimizer, TS searches, QM/MM, DLPNO-CCSD(T), (RO)-DLPNO pert. Triples
   Tobias Risthaus        : Range-separated hybrids, TD-DFT gradient, RPA, STAB
   Michael Roemelt        : Restricted open shell CIS
   Masaaki Saitow         : Open-shell DLPNO
   Barbara Sandhoefer     : DKH picture change effects
   Kantharuban Sivalingam : CASSCF convergence, NEVPT2, FIC-MRCI
   Georgi Stoychev        : AutoAux
   Boris Wezisla          : Elementary symmetry handling
   Frank Wennmohs         : Technical directorship


 We gratefully acknowledge several colleagues who have allowed us to
 interface, adapt or use parts of their codes:
   Stefan Grimme, W. Hujo, H. Kruse,             : VdW corrections, initial TS optimization,
                  C. Bannwarth                     DFT functionals, gCP, sTDA/sTD-DF
   Ed Valeev                                     : LibInt (2-el integral package), F12 methods
   Garnet Chan, S. Sharma, J. Yang, R. Olivares  : DMRG
   Ulf Ekstrom                                   : XCFun DFT Library
   Mihaly Kallay                                 : mrcc  (arbitrary order and MRCC methods)
   Andreas Klamt, Michael Diedenhofen            : otool_cosmo (COSMO solvation model)
   Jiri Pittner, Ondrej Demel                    : Mk-CCSD
   Frank Weinhold                                : gennbo (NPA and NBO analysis)
   Christopher J. Cramer and Donald G. Truhlar   : smd solvation model


 Your calculation uses the libint2 library for the computation of 2-el integrals
 For citations please refer to: http://libint.valeyev.net

 This ORCA versions uses:
   CBLAS   interface :  Fast vector & matrix operations
   LAPACKE interface :  Fast linear algebra routines
   SCALAPACK package :  Parallel linear algebra routines


Your calculation utilizes the atom-pairwise dispersion correction
with the Becke-Johnson damping scheme (D3BJ)
Cite in your paper:
S.Grimme, S.Ehrlich, L.Goerigk, J Comput Chem, (2011), 32, 1456–1465 
S.Grimme, J.Antony, S.Ehrlich and H.Krieg, J.Chem.Phys., 132, (2010), 154104 
   

Your calculation utilizes the basis: cc-pVDZ 
       H, B-Ne : Obtained from the ccRepo (grant-hill.group.shef.ac.uk/ccrepo) Feb. 2017
                 T. H. Dunning, Jr., J. Chem. Phys. 90, 1007 (1989)
            He : Obtained from the ccRepo (grant-hill.group.shef.ac.uk/ccrepo) Feb. 2017
                 D. E. Woon, T. H. Dunning, Jr., J. Chem. Phys. 100, 2975 (1994)
  Li-Be, Na-Mg : Obtained from the ccRepo (grant-hill.group.shef.ac.uk/ccrepo) Feb. 2017
                 B. P. Prascher, D. E. Woon, K. A. Peterson, T. H. Dunning, Jr., A. K. Wilson, Theor. Chem. Acc. 128, 69 (2011)
         Al-Ar : Obtained from the ccRepo (grant-hill.group.shef.ac.uk/ccrepo) Feb. 2017
                 D. E. Woon, T. H. Dunning, Jr., J. Chem. Phys. 98, 1358 (1993)
            Ca : Obtained from the Peterson Research Group Website (tyr0.chem.wsu.edu/~kipeters) Feb. 2017
                 J. Koput, K. A. Peterson, J. Phys. Chem. 106, 9595 (2002)
         Sc-Zn : Obtained from the ccRepo (grant-hill.group.shef.ac.uk/ccrepo) Feb. 2017
                 N. B. Balabanov, K. A. Peterson, J. Chem. Phys. 123, 064107 (2005)
                 N. B. Balabanov, K. A. Peterson, J. Chem. Phys. 125, 074110 (2006)
         Ga-Kr : Obtained from the ccRepo (grant-hill.group.shef.ac.uk/ccrepo) Feb. 2017
                 A. K. Wilson, D. E. Woon, K. A. Peterson, T. H. Dunning, Jr., J. Chem. Phys. 110, 7667 (1999)

Your calculation utilizes the auxiliary basis: def2/J
   F. Weigend, Phys. Chem. Chem. Phys. 8, 1057 (2006).

================================================================================
                                        WARNINGS
                       Please study these warnings very carefully!
================================================================================

Warning: TCutStore was < 0. Adjusted to Thresh (uncritical)

WARNING: Geometry Optimization
  ===> : Switching off AutoStart
         For restart on a previous wavefunction, please use MOREAD

INFO   : the flag for use of LIBINT has been found!

================================================================================
                                       INPUT FILE
================================================================================
NAME = AT-v/e/frag_06_c00001.com
|  1> %pal nprocs 6 end
|  2> %maxcore 1000
|  3> ! b3lyp TIGHTSCF nopop D3BJ
|  4> ! cc-pvdz def2/J RIJCOSX
|  5> ! Opt
|  6> 
|  7> %geom
|  8> maxiter 60
|  9> TolE 1e-4
| 10> TolRMSG 2e-3
| 11> TolMaxG 3e-3
| 12> TolRMSD 2e-2
| 13> TolMaxD 3e-2
| 14> end
| 15> 
| 16> *xyz 0 1
| 17> C 3.041 -0.7511 -0.0524
| 18> C 1.7057 -0.6123 -0.1074
| 19> N 0.9621 -1.7508 -0.3142
| 20> N 1.0214 0.5702 0.0247
| 21> C 1.6302 1.6885 0.22
| 22> N -1.8779 0.2927 -0.2389
| 23> C -2.4424 -0.8346 0.263
| 24> O -1.792 -1.7648 0.7194
| 25> H 3.499 -1.7269 -0.1836
| 26> H 3.7338 0.0625 0.1033
| 27> H 1.3974 -2.5889 0.0519
| 28> H 0.024 -1.6502 0.0882
| 29> H 2.7185 1.8346 0.3022
| 30> H 1.0238 2.6044 0.319
| 31> H -2.4067 1.0174 -0.6987
| 32> H -0.8565 0.3513 -0.2655
| 33> H -3.5431 -0.8282 0.2093
| 34> *
| 35> 
| 36> 
| 37>                          ****END OF INPUT****
================================================================================

                       *****************************
                       * Geometry Optimization Run *
                       *****************************

Geometry optimization settings:
Update method            Update   .... BFGS
Choice of coordinates    CoordSys .... Redundant Internals
Initial Hessian          InHess   .... Almoef's Model

Convergence Tolerances:
Energy Change            TolE     ....  1.0000e-04 Eh
Max. Gradient            TolMAXG  ....  3.0000e-03 Eh/bohr
RMS Gradient             TolRMSG  ....  2.0000e-03 Eh/bohr
Max. Displacement        TolMAXD  ....  3.0000e-02 bohr
RMS Displacement         TolRMSD  ....  2.0000e-02 bohr

------------------------------------------------------------------------------
                        ORCA OPTIMIZATION COORDINATE SETUP
------------------------------------------------------------------------------

The optimization will be done in new redundant internal coordinates
Making redundant internal coordinates   ...  (new redundants) done
Evaluating the initial hessian          ...  (Almloef) done
Evaluating the coordinates              ...  done
Calculating the B-matrix                .... done
Calculating the G-matrix                .... done
Diagonalizing the G-matrix              .... done
The first mode is                       ....   41
The number of degrees of freedom        ....   45

    -----------------------------------------------------------------
                    Redundant Internal Coordinates


    -----------------------------------------------------------------
         Definition                    Initial Value    Approx d2E/dq
    -----------------------------------------------------------------
      1. B(C   1,C   0)                  1.3436         0.740856   
      2. B(N   2,C   1)                  1.3755         0.590301   
      3. B(N   3,C   1)                  1.3726         0.596541   
      4. B(C   4,N   3)                  1.2882         0.813473   
      5. B(C   6,N   5)                  1.3570         0.631789   
      6. B(O   7,C   6)                  1.2234         1.032166   
      7. B(H   8,C   0)                  1.0859         0.365575   
      8. B(H   9,C   0)                  1.0799         0.373728   
      9. B(H  10,N   2)                  1.0129         0.428153   
     10. B(H  11,N   2)                  1.0257         0.408445   
     11. B(H  11,O   7)                  1.9260         0.014956   
     12. B(H  12,C   4)                  1.1011         0.345667   
     13. B(H  13,C   4)                  1.1029         0.343429   
     14. B(H  14,N   5)                  1.0081         0.435763   
     15. B(H  15,N   5)                  1.0234         0.411885   
     16. B(H  15,H  11)                  2.2150         0.001105   
     17. B(H  15,N   3)                  1.9128         0.015700   
     18. B(H  16,C   6)                  1.1020         0.344535   
     19. A(C   1,C   0,H   9)          124.4472         0.366084   
     20. A(H   8,C   0,H   9)          115.0785         0.293240   
     21. A(C   1,C   0,H   8)          120.4672         0.364704   
     22. A(N   2,C   1,N   3)          117.2604         0.421743   
     23. A(C   0,C   1,N   2)          117.2529         0.441366   
     24. A(C   0,C   1,N   3)          125.4866         0.442206   
     25. A(H  10,N   2,H  11)          109.4152         0.299971   
     26. A(C   1,N   2,H  10)          113.4664         0.355051   
     27. A(C   1,N   2,H  11)          110.7492         0.352228   
     28. A(C   1,N   3,H  15)          112.1025         0.215196   
     29. A(C   4,N   3,H  15)          125.8984         0.224374   
     30. A(C   1,N   3,C   4)          121.7946         0.446792   
     31. A(H  12,C   4,H  13)          115.2474         0.286845   
     32. A(N   3,C   4,H  13)          118.3395         0.364362   
     33. A(N   3,C   4,H  12)          126.4131         0.364767   
     34. A(C   6,N   5,H  14)          123.2093         0.360252   
     35. A(H  14,N   5,H  15)          118.0670         0.301216   
     36. A(C   6,N   5,H  15)          118.1875         0.356814   
     37. A(N   5,C   6,O   7)          123.2638         0.471541   
     38. A(O   7,C   6,H  16)          123.6149         0.379820   
     39. A(N   5,C   6,H  16)          113.1196         0.349240   
     40. A(C   6,O   7,H  11)          109.4986         0.230307   
     41. A(O   7,H  11,H  15)           74.4123         0.109957   
     42. A(N   2,H  11,H  15)          112.9256         0.133301   
     43. A(N   2,H  11,O   7)          170.0962         0.187741   
     44. A(N   3,H  15,H  11)           71.8755         0.110188   
     45. A(N   5,H  15,H  11)          109.9277         0.133386   
     46. A(N   3,H  15,N   5)          169.2477         0.189022   
     47. D(N   2,C   1,C   0,H   8)      0.9417         0.039051   
     48. D(N   3,C   1,C   0,H   9)     -0.0358         0.039051   
     49. D(N   3,C   1,C   0,H   8)   -179.0201         0.039051   
     50. D(N   2,C   1,C   0,H   9)    179.9260         0.039051   
     51. D(H  11,N   2,C   1,C   0)    153.0064         0.028014   
     52. D(H  10,N   2,C   1,N   3)   -150.5317         0.028014   
     53. D(H  10,N   2,C   1,C   0)     29.5033         0.028014   
     54. D(H  11,N   2,C   1,N   3)    -27.0286         0.028014   
     55. D(H  15,N   3,C   1,N   2)     -4.8602         0.028651   
     56. D(H  15,N   3,C   1,C   0)    175.1016         0.028651   
     57. D(C   4,N   3,C   1,C   0)      0.0097         0.028651   
     58. D(C   4,N   3,C   1,N   2)   -179.9520         0.028651   
     59. D(H  13,C   4,N   3,C   1)   -179.9439         0.056651   
     60. D(H  12,C   4,N   3,H  15)   -174.3946         0.056651   
     61. D(H  12,C   4,N   3,C   1)     -0.0104         0.056651   
     62. D(H  13,C   4,N   3,H  15)      5.6720         0.056651   
     63. D(H  16,C   6,N   5,H  15)   -177.3434         0.032419   
     64. D(H  16,C   6,N   5,H  14)     -5.9157         0.032419   
     65. D(O   7,C   6,N   5,H  15)      2.1922         0.032419   
     66. D(O   7,C   6,N   5,H  14)    173.6199         0.032419   
     67. D(H  11,O   7,C   6,H  16)    160.6470         0.088136   
     68. D(H  11,O   7,C   6,N   5)    -18.8401         0.088136   
     69. D(H  15,H  11,O   7,C   6)     17.0041         0.001617   
     70. D(N   2,H  11,O   7,C   6)   -121.8884         0.001617   
     71. D(H  15,H  11,N   2,H  10)    167.1076         0.207265   
     72. D(H  15,H  11,N   2,C   1)     41.3023         0.207265   
     73. D(O   7,H  11,N   2,H  10)    -56.3333         0.207265   
     74. D(O   7,H  11,N   2,C   1)    177.8614         0.207265   
     75. D(H  11,H  15,N   3,C   1)     16.5155         0.001643   
     76. D(N   5,H  15,N   3,C   4)    -67.1799         0.001643   
     77. D(N   5,H  15,N   3,C   1)    117.9706         0.001643   
     78. D(N   3,H  15,H  11,O   7)    150.8142         0.001512   
     79. D(N   5,H  15,H  11,O   7)    -17.9706         0.001512   
     80. D(N   5,H  15,H  11,N   2)    154.9768         0.001512   
     81. D(H  11,H  15,N   5,H  14)   -158.2621         0.211676   
     82. D(H  11,H  15,N   5,C   6)     13.6129         0.211676   
     83. D(N   3,H  15,N   5,H  14)    103.9499         0.211676   
     84. D(N   3,H  15,H  11,N   2)    -36.2384         0.001512   
     85. D(N   3,H  15,N   5,C   6)    -84.1752         0.211676   
     86. D(H  11,H  15,N   3,C   4)   -168.6349         0.001643   
    -----------------------------------------------------------------

Number of atoms                         .... 17
Number of degrees of freedom            .... 86

         *************************************************************
         *                GEOMETRY OPTIMIZATION CYCLE   1            *
         *************************************************************
---------------------------------
CARTESIAN COORDINATES (ANGSTROEM)
---------------------------------
  C      3.041000   -0.751100   -0.052400
  C      1.705700   -0.612300   -0.107400
  N      0.962100   -1.750800   -0.314200
  N      1.021400    0.570200    0.024700
  C      1.630200    1.688500    0.220000
  N     -1.877900    0.292700   -0.238900
  C     -2.442400   -0.834600    0.263000
  O     -1.792000   -1.764800    0.719400
  H      3.499000   -1.726900   -0.183600
  H      3.733800    0.062500    0.103300
  H      1.397400   -2.588900    0.051900
  H      0.024000   -1.650200    0.088200
  H      2.718500    1.834600    0.302200
  H      1.023800    2.604400    0.319000
  H     -2.406700    1.017400   -0.698700
  H     -0.856500    0.351300   -0.265500
  H     -3.543100   -0.828200    0.209300

----------------------------
CARTESIAN COORDINATES (A.U.)
----------------------------
  NO LB      ZA    FRAG     MASS         X           Y           Z
   0 C     6.0000    0    12.011    5.746657   -1.419373   -0.099022
   1 C     6.0000    0    12.011    3.223306   -1.157079   -0.202957
   2 N     7.0000    0    14.007    1.818106   -3.308533   -0.593752
   3 N     7.0000    0    14.007    1.930166    1.077522    0.046676
   4 C     6.0000    0    12.011    3.080632    3.190803    0.415740
   5 N     7.0000    0    14.007   -3.548717    0.553123   -0.451456
   6 C     6.0000    0    12.011   -4.615467   -1.577165    0.496998
   7 O     8.0000    0    15.999   -3.386389   -3.334989    1.359469
   8 H     1.0000    0     1.008    6.612152   -3.263368   -0.346954
   9 H     1.0000    0     1.008    7.055859    0.118108    0.195209
  10 H     1.0000    0     1.008    2.640703   -4.892312    0.098077
  11 H     1.0000    0     1.008    0.045353   -3.118426    0.166674
  12 H     1.0000    0     1.008    5.137220    3.466892    0.571075
  13 H     1.0000    0     1.008    1.934702    4.921603    0.602823
  14 H     1.0000    0     1.008   -4.548004    1.922607   -1.320352
  15 H     1.0000    0     1.008   -1.618550    0.663861   -0.501722
  16 H     1.0000    0     1.008   -6.695489   -1.565071    0.395520

--------------------------------
INTERNAL COORDINATES (ANGSTROEM)
--------------------------------
 C      0   0   0     0.000000000000     0.00000000     0.00000000
 C      1   0   0     1.343620679359     0.00000000     0.00000000
 N      2   1   0     1.375459723147   117.25293880     0.00000000
 N      2   1   3     1.372597227886   125.48663922   180.03821378
 C      4   2   1     1.288167077673   121.79459691     0.00000000
 N      4   2   1     2.924454085808   113.81802717   178.71539566
 C      6   4   2     1.356970578163   117.25249718    36.04039788
 O      7   6   4     1.223353244161   123.26379611   354.34390066
 H      1   2   3     1.085892757136   120.46718041     0.94171027
 H      1   2   3     1.079888554435   124.44723956   179.92602240
 H      3   2   1     1.012880501343   113.46639367    29.50331651
 H      3   2   1     1.025708403982   110.74915949   153.00637004
 H      5   4   2     1.101135295956   126.41312660     0.00000000
 H      5   4   2     1.102902883304   118.33945479   180.05612024
 H      6   4   2     1.008085100574   119.53429685   216.73659948
 H      6   4   2     1.023425366111     7.00889462   296.56030330
 H      7   6   4     1.102027740123   113.11957608   174.80833037

---------------------------
INTERNAL COORDINATES (A.U.)
---------------------------
 C      0   0   0     0.000000000000     0.00000000     0.00000000
 C      1   0   0     2.539075111861     0.00000000     0.00000000
 N      2   1   0     2.599242184987   117.25293880     0.00000000
 N      2   1   3     2.593832852884   125.48663922   180.03821378
 C      4   2   1     2.434282991535   121.79459691     0.00000000
 N      4   2   1     5.526417313404   113.81802717   178.71539566
 C      6   4   2     2.564302764517   117.25249718    36.04039788
 O      7   6   4     2.311802596509   123.26379611   354.34390066
 H      1   2   3     2.052039921795   120.46718041     0.94171027
 H      1   2   3     2.040693623039   124.44723956   179.92602240
 H      3   2   1     1.914066753926   113.46639367    29.50331651
 H      3   2   1     1.938307976788   110.74915949   153.00637004
 H      5   4   2     2.080844145751   126.41312660     0.00000000
 H      5   4   2     2.084184401756   118.33945479   180.05612024
 H      6   4   2     1.905004759772   119.53429685   216.73659948
 H      6   4   2     1.933993660458     7.00889462   296.56030330
 H      7   6   4     2.082530620816   113.11957608   174.80833037

---------------------
BASIS SET INFORMATION
---------------------
There are 4 groups of distinct atoms

 Group   1 Type C   : 17s4p1d contracted to 3s2p1d pattern {881/31/1}
 Group   2 Type N   : 17s4p1d contracted to 3s2p1d pattern {881/31/1}
 Group   3 Type O   : 17s4p1d contracted to 3s2p1d pattern {881/31/1}
 Group   4 Type H   : 4s1p contracted to 2s1p pattern {31/1}

Atom   0C    basis set group =>   1
Atom   1C    basis set group =>   1
Atom   2N    basis set group =>   2
Atom   3N    basis set group =>   2
Atom   4C    basis set group =>   1
Atom   5N    basis set group =>   2
Atom   6C    basis set group =>   1
Atom   7O    basis set group =>   3
Atom   8H    basis set group =>   4
Atom   9H    basis set group =>   4
Atom  10H    basis set group =>   4
Atom  11H    basis set group =>   4
Atom  12H    basis set group =>   4
Atom  13H    basis set group =>   4
Atom  14H    basis set group =>   4
Atom  15H    basis set group =>   4
Atom  16H    basis set group =>   4
-------------------------------
AUXILIARY BASIS SET INFORMATION
-------------------------------
There are 4 groups of distinct atoms

 Group   1 Type C   : 12s5p4d2f1g contracted to 6s4p3d1f1g pattern {711111/2111/211/2/1}
 Group   2 Type N   : 12s5p4d2f1g contracted to 6s4p3d1f1g pattern {711111/2111/211/2/1}
 Group   3 Type O   : 12s5p4d2f1g contracted to 6s4p3d1f1g pattern {711111/2111/211/2/1}
 Group   4 Type H   : 5s2p1d contracted to 3s1p1d pattern {311/2/1}

Atom   0C    basis set group =>   1
Atom   1C    basis set group =>   1
Atom   2N    basis set group =>   2
Atom   3N    basis set group =>   2
Atom   4C    basis set group =>   1
Atom   5N    basis set group =>   2
Atom   6C    basis set group =>   1
Atom   7O    basis set group =>   3
Atom   8H    basis set group =>   4
Atom   9H    basis set group =>   4
Atom  10H    basis set group =>   4
Atom  11H    basis set group =>   4
Atom  12H    basis set group =>   4
Atom  13H    basis set group =>   4
Atom  14H    basis set group =>   4
Atom  15H    basis set group =>   4
Atom  16H    basis set group =>   4


           ************************************************************
           *        Program running with 6 parallel MPI-processes     *
           *              working on a common directory               *
           ************************************************************
------------------------------------------------------------------------------
                           ORCA GTO INTEGRAL CALCULATION
                           -- RI-GTO INTEGRALS CHOSEN --
------------------------------------------------------------------------------

                         BASIS SET STATISTICS AND STARTUP INFO

Gaussian basis set:
 # of primitive gaussian shells          ...  221
 # of primitive gaussian functions       ...  335
 # of contracted shells                  ...   75
 # of contracted basis functions         ...  157
 Highest angular momentum                ...    2
 Maximum contraction depth               ...    8
Auxiliary gaussian basis set:
 # of primitive gaussian shells          ...  264
 # of primitive gaussian functions       ...  704
 # of contracted shells                  ...  165
 # of contracted aux-basis functions     ...  491
 Highest angular momentum                ...    4
 Maximum contraction depth               ...    7
Ratio of auxiliary to basis functions    ...  3.13
Integral package used                  ... LIBINT
 One Electron integrals                  ... done
 Ordering auxiliary basis shells         ... done
 Integral threshhold             Thresh  ...  2.500e-11
 Primitive cut-off               TCut    ...  2.500e-12
 Pre-screening matrix                    ... done
 Shell pair data                         ... 
 Ordering of the shell pairs             ... done (   0.001 sec) 2671 of 2850 pairs
 Determination of significant pairs      ... done (   0.000 sec)
 Creation of shell pair data             ... done (   0.001 sec)
 Storage of shell pair data              ... done (   0.002 sec)
 Shell pair data done in (   0.004 sec)
 Computing two index integrals           ... done
 Cholesky decomposition of the V-matrix  ... done


Timings:
 Total evaluation time                   ...   0.355 sec (  0.006 min)
 One electron matrix time                ...   0.044 sec (  0.001 min) = 12.4%
 Schwartz matrix evaluation time         ...   0.214 sec (  0.004 min) = 60.1%
 Two index repulsion integral time       ...   0.065 sec (  0.001 min) = 18.2%
 Cholesky decomposition of V             ...   0.009 sec (  0.000 min) =  2.5%
 Three index repulsion integral time     ...   0.000 sec (  0.000 min) =  0.0%



           ************************************************************
           *        Program running with 6 parallel MPI-processes     *
           *              working on a common directory               *
           ************************************************************
-------------------------------------------------------------------------------
                                 ORCA SCF
-------------------------------------------------------------------------------

------------
SCF SETTINGS
------------
Hamiltonian:
 Density Functional     Method          .... DFT(GTOs)
 Exchange Functional    Exchange        .... B88
   X-Alpha parameter    XAlpha          ....  0.666667
   Becke's b parameter  XBeta           ....  0.004200
 Correlation Functional Correlation     .... LYP
 LDA part of GGA corr.  LDAOpt          .... VWN-5
 Gradients option       PostSCFGGA      .... off
 Hybrid DFT is turned on
   Fraction HF Exchange ScalHFX         ....  0.200000
   Scaling of DF-GGA-X  ScalDFX         ....  0.720000
   Scaling of DF-GGA-C  ScalDFC         ....  0.810000
   Scaling of DF-LDA-C  ScalLDAC        ....  1.000000
   Perturbative correction              ....  0.000000
   NL short-range parameter             ....  4.800000
 RI-approximation to the Coulomb term is turned on
   Number of auxiliary basis functions  .... 491
   RIJ-COSX (HFX calculated with COS-X)).... on


General Settings:
 Integral files         IntName         .... AT-v/e/frag_06_c00001
 Hartree-Fock type      HFTyp           .... RHF
 Total Charge           Charge          ....    0
 Multiplicity           Mult            ....    1
 Number of Electrons    NEL             ....   62
 Basis Dimension        Dim             ....  157
 Nuclear Repulsion      ENuc            ....    359.8746199427 Eh

Convergence Acceleration:
 DIIS                   CNVDIIS         .... on
   Start iteration      DIISMaxIt       ....    12
   Startup error        DIISStart       ....  0.200000
   # of expansion vecs  DIISMaxEq       ....     5
   Bias factor          DIISBfac        ....   1.050
   Max. coefficient     DIISMaxC        ....  10.000
 Newton-Raphson         CNVNR           .... off
 SOSCF                  CNVSOSCF        .... on
   Start iteration      SOSCFMaxIt      ....   150
   Startup grad/error   SOSCFStart      ....  0.003300
 Level Shifting         CNVShift        .... on
   Level shift para.    LevelShift      ....    0.2500
   Turn off err/grad.   ShiftErr        ....    0.0010
 Zerner damping         CNVZerner       .... off
 Static damping         CNVDamp         .... on
   Fraction old density DampFac         ....    0.7000
   Max. Damping (<1)    DampMax         ....    0.9800
   Min. Damping (>=0)   DampMin         ....    0.0000
   Turn off err/grad.   DampErr         ....    0.1000
 Fernandez-Rico         CNVRico         .... off

SCF Procedure:
 Maximum # iterations   MaxIter         ....   125
 SCF integral mode      SCFMode         .... Direct
   Integral package                     .... LIBINT
 Reset frequeny         DirectResetFreq ....    20
 Integral Threshold     Thresh          ....  2.500e-11 Eh
 Primitive CutOff       TCut            ....  2.500e-12 Eh

Convergence Tolerance:
 Convergence Check Mode ConvCheckMode   .... Total+1el-Energy
 Convergence forced     ConvForced      .... 0
 Energy Change          TolE            ....  1.000e-08 Eh
 1-El. energy change                    ....  1.000e-05 Eh
 Orbital Gradient       TolG            ....  1.000e-05
 Orbital Rotation angle TolX            ....  1.000e-05
 DIIS Error             TolErr          ....  5.000e-07


Diagonalization of the overlap matrix:
Smallest eigenvalue                        ... 2.316e-03
Time for diagonalization                   ...    0.007 sec
Threshold for overlap eigenvalues          ... 1.000e-08
Number of eigenvalues below threshold      ... 0
Time for construction of square roots      ...    0.003 sec
Total time needed                          ...    0.010 sec

-------------------
DFT GRID GENERATION
-------------------

General Integration Accuracy     IntAcc      ...  4.340
Radial Grid Type                 RadialGrid  ... Gauss-Chebyshev
Angular Grid (max. acc.)         AngularGrid ... Lebedev-110
Angular grid pruning method      GridPruning ... 3 (G Style)
Weight generation scheme         WeightScheme... Becke
Basis function cutoff            BFCut       ...    1.0000e-11
Integration weight cutoff        WCut        ...    1.0000e-14
Grids for H and He will be reduced by one unit

# of grid points (after initial pruning)     ...  20592 (   0.0 sec)
# of grid points (after weights+screening)   ...  19233 (   0.0 sec)
nearest neighbour list constructed           ...    0.0 sec
Grid point re-assignment to atoms done       ...    0.0 sec
Grid point division into batches done        ...    0.0 sec
Reduced shell lists constructed in    0.1 sec

Total number of grid points                  ...    19233
Total number of batches                      ...      310
Average number of points per batch           ...       62
Average number of grid points per atom       ...     1131
Average number of shells per batch           ...    60.89 (81.18%)
Average number of basis functions per batch  ...   124.13 (79.07%)
Average number of large shells per batch     ...    47.57 (78.12%)
Average number of large basis fcns per batch ...    96.47 (77.72%)
Maximum spatial batch extension              ...   9.14, 11.12, 15.91 au
Average spatial batch extension              ...   0.34,  0.35,  0.51 au

Time for grid setup =    0.099 sec

------------------------------
INITIAL GUESS: MODEL POTENTIAL
------------------------------
Loading Hartree-Fock densities                     ... done
Calculating cut-offs                               ... done
Setting up the integral package                    ... done
Initializing the effective Hamiltonian             ... done
Starting the Coulomb interaction                   ... done (   0.0 sec)
Reading the grid                                   ... done
Mapping shells                                     ... done
Starting the XC term evaluation                    ... done (   0.1 sec)
  promolecular density results
     # of electrons  =     62.006602831
     EX              =    -51.130213158
     EC              =     -2.088796026
     EX+EC           =    -53.219009185
Transforming the Hamiltonian                       ... done (   0.0 sec)
Diagonalizing the Hamiltonian                      ... done (   0.0 sec)
Back transforming the eigenvectors                 ... done (   0.0 sec)
Now organizing SCF variables                       ... done
                      ------------------
                      INITIAL GUESS DONE (   0.4 sec)
                      ------------------
--------------------
COSX GRID GENERATION
--------------------

General Integration Accuracy     IntAcc      ...  3.340
Radial Grid Type                 RadialGrid  ... Gauss-Chebyshev
Angular Grid (max. acc.)         AngularGrid ... Lebedev-50
Angular grid pruning method      GridPruning ... 3 (G Style)
Weight generation scheme         WeightScheme... Becke
Basis function cutoff            BFCut       ...    1.0000e-11
Integration weight cutoff        WCut        ...    1.0000e-14
Grids for H and He will be reduced by one unit

# of grid points (after initial pruning)     ...   7478 (   0.0 sec)
# of grid points (after weights+screening)   ...   7027 (   0.0 sec)
nearest neighbour list constructed           ...    0.0 sec
Grid point re-assignment to atoms done       ...    0.0 sec
Grid point division into batches done        ...    0.0 sec
Reduced shell lists constructed in    0.0 sec

Total number of grid points                  ...     7027
Total number of batches                      ...      117
Average number of points per batch           ...       60
Average number of grid points per atom       ...      413
Average number of shells per batch           ...    61.38 (81.84%)
Average number of basis functions per batch  ...   125.76 (80.10%)
Average number of large shells per batch     ...    48.14 (78.43%)
Average number of large basis fcns per batch ...    97.67 (77.66%)
Maximum spatial batch extension              ...   6.77,  7.55, 17.51 au
Average spatial batch extension              ...   0.40,  0.44,  0.92 au

Overlap Fitting                  UseSFitting ... on
Constructing numerical overlap ... done (      0.0 sec)
Inverting numerical overlap    ... done (      0.0 sec)
Obtaining analytic overlap     ... done (      0.0 sec)
Final contraction and storage  ... done (      0.0 sec)


General Integration Accuracy     IntAcc      ...  3.670
Radial Grid Type                 RadialGrid  ... Gauss-Chebyshev
Angular Grid (max. acc.)         AngularGrid ... Lebedev-50
Angular grid pruning method      GridPruning ... 3 (G Style)
Weight generation scheme         WeightScheme... Becke
Basis function cutoff            BFCut       ...    1.0000e-11
Integration weight cutoff        WCut        ...    1.0000e-14
Grids for H and He will be reduced by one unit

# of grid points (after initial pruning)     ...   9596 (   0.0 sec)
# of grid points (after weights+screening)   ...   8989 (   0.0 sec)
nearest neighbour list constructed           ...    0.0 sec
Grid point re-assignment to atoms done       ...    0.0 sec
Grid point division into batches done        ...    0.0 sec
Reduced shell lists constructed in    0.0 sec

Total number of grid points                  ...     8989
Total number of batches                      ...      151
Average number of points per batch           ...       59
Average number of grid points per atom       ...      529
Average number of shells per batch           ...    62.15 (82.86%)
Average number of basis functions per batch  ...   127.48 (81.20%)
Average number of large shells per batch     ...    47.85 (77.00%)
Average number of large basis fcns per batch ...    97.33 (76.35%)
Maximum spatial batch extension              ...   6.77,  8.79, 19.20 au
Average spatial batch extension              ...   0.38,  0.41,  0.75 au

Overlap Fitting                  UseSFitting ... on
Constructing numerical overlap ... done (      0.0 sec)
Inverting numerical overlap    ... done (      0.0 sec)
Obtaining analytic overlap     ... done (      0.0 sec)
Final contraction and storage  ... done (      0.0 sec)


General Integration Accuracy     IntAcc      ...  4.010
Radial Grid Type                 RadialGrid  ... Gauss-Chebyshev
Angular Grid (max. acc.)         AngularGrid ... Lebedev-110
Angular grid pruning method      GridPruning ... 3 (G Style)
Weight generation scheme         WeightScheme... Becke
Basis function cutoff            BFCut       ...    1.0000e-11
Integration weight cutoff        WCut        ...    1.0000e-14
Grids for H and He will be reduced by one unit

# of grid points (after initial pruning)     ...  17710 (   0.0 sec)
# of grid points (after weights+screening)   ...  16568 (   0.0 sec)
nearest neighbour list constructed           ...    0.0 sec
Grid point re-assignment to atoms done       ...    0.0 sec
Grid point division into batches done        ...    0.0 sec
Reduced shell lists constructed in    0.1 sec

Total number of grid points                  ...    16568
Total number of batches                      ...      267
Average number of points per batch           ...       62
Average number of grid points per atom       ...      975
Average number of shells per batch           ...    60.72 (80.96%)
Average number of basis functions per batch  ...   123.89 (78.91%)
Average number of large shells per batch     ...    47.39 (78.05%)
Average number of large basis fcns per batch ...    95.91 (77.42%)
Maximum spatial batch extension              ...   7.86, 10.43, 15.65 au
Average spatial batch extension              ...   0.33,  0.35,  0.50 au

Overlap Fitting                  UseSFitting ... on
Constructing numerical overlap ... done (      0.0 sec)
Inverting numerical overlap    ... done (      0.0 sec)
Obtaining analytic overlap     ... done (      0.0 sec)
Final contraction and storage  ... done (      0.0 sec)

Time for X-Grid setup             =    0.322 sec
--------------
SCF ITERATIONS
--------------
ITER       Energy         Delta-E        Max-DP      RMS-DP      [F,P]     Damp
               ***  Starting incremental Fock matrix formation  ***
  0   -396.7441336812   0.000000000000 0.09121218  0.00263238  0.2654535 0.7000
  1   -396.9044474150  -0.160313733820 0.05632734  0.00174685  0.1139675 0.7000
                               ***Turning on DIIS***
  2   -396.9629805925  -0.058533177483 0.10066285  0.00258751  0.0410444 0.0000
  3   -397.0532956699  -0.090315077426 0.03348420  0.00121069  0.0620160 0.0000
  4   -397.0757963474  -0.022500677455 0.01214225  0.00037210  0.0158871 0.0000
  5   -397.0773451755  -0.001548828120 0.00453412  0.00013837  0.0072550 0.0000
                      *** Initiating the SOSCF procedure ***
                           *** Shutting down DIIS ***
                      *** Re-Reading the Fockian *** 
                      *** Removing any level shift *** 
ITER      Energy       Delta-E        Grad      Rot      Max-DP    RMS-DP
  6   -397.07748286  -0.0001376866  0.000745  0.000745  0.001250  0.000047
               *** Restarting incremental Fock matrix formation ***
  7   -397.07750462  -0.0000217590  0.000334  0.001239  0.001135  0.000036
  8   -397.07750430   0.0000003173  0.000434  0.000560  0.000731  0.000018
  9   -397.07750706  -0.0000027571  0.000081  0.000309  0.000272  0.000011
 10   -397.07750712  -0.0000000617  0.000050  0.000061  0.000114  0.000004
 11   -397.07750726  -0.0000001422  0.000019  0.000037  0.000055  0.000002
 12   -397.07750726   0.0000000037  0.000022  0.000027  0.000041  0.000001
 13   -397.07750728  -0.0000000160  0.000008  0.000020  0.000019  0.000001
 14   -397.07750727   0.0000000037  0.000008  0.000010  0.000013  0.000000
                  ***Gradient check signals convergence***
              ***Rediagonalizing the Fockian in SOSCF/NRSCF***

               *****************************************************
               *                     SUCCESS                       *
               *           SCF CONVERGED AFTER  15 CYCLES          *
               *****************************************************

Setting up the final grid:

General Integration Accuracy     IntAcc      ...  4.670
Radial Grid Type                 RadialGrid  ... Gauss-Chebyshev
Angular Grid (max. acc.)         AngularGrid ... Lebedev-302
Angular grid pruning method      GridPruning ... 3 (G Style)
Weight generation scheme         WeightScheme... Becke
Basis function cutoff            BFCut       ...    1.0000e-11
Integration weight cutoff        WCut        ...    1.0000e-14
Grids for H and He will be reduced by one unit

# of grid points (after initial pruning)     ...  80242 (   0.0 sec)
# of grid points (after weights+screening)   ...  73901 (   0.1 sec)
nearest neighbour list constructed           ...    0.0 sec
Grid point re-assignment to atoms done       ...    0.0 sec
Grid point division into batches done        ...    0.3 sec
Reduced shell lists constructed in    0.5 sec

Total number of grid points                  ...    73901
Total number of batches                      ...     1166
Average number of points per batch           ...       63
Average number of grid points per atom       ...     4347
Average number of shells per batch           ...    57.87 (77.16%)
Average number of basis functions per batch  ...   117.48 (74.83%)
Average number of large shells per batch     ...    44.57 (77.02%)
Average number of large basis fcns per batch ...    89.99 (76.60%)
Maximum spatial batch extension              ...   9.60, 12.60, 18.61 au
Average spatial batch extension              ...   0.24,  0.25,  0.31 au

Final grid set up in    0.6 sec
Final integration                            ... done (   0.3 sec)
Change in XC energy                          ...     0.000219297
Integrated number of electrons               ...    62.000112781
Previous integrated no of electrons          ...    62.003534259
Old exchange energy                            =    -10.396310381 Eh
New exchange energy                            =    -10.395789459 Eh
Exchange energy change after final integration =      0.000520922 Eh
Total energy after final integration           =   -397.076767055 Eh
Final COS-X integration done in                =     1.852 sec

----------------
TOTAL SCF ENERGY
----------------

Total Energy       :         -397.07676705 Eh          -10805.00815 eV

Components:
Nuclear Repulsion  :          359.87461994 Eh            9792.68626 eV
Electronic Energy  :         -756.95138700 Eh          -20597.69441 eV
One Electron Energy:        -1252.35099192 Eh          -34078.20299 eV
Two Electron Energy:          495.39960492 Eh           13480.50859 eV

Virial components:
Potential Energy   :         -791.89595800 Eh          -21548.58453 eV
Kinetic Energy     :          394.81919094 Eh           10743.57638 eV
Virial Ratio       :            2.00571800


DFT components:
N(Alpha)           :       31.000056390378 electrons
N(Beta)            :       31.000056390378 electrons
N(Total)           :       62.000112780757 electrons
E(X)               :      -41.333000585820 Eh       
E(C)               :       -2.471299753989 Eh       
E(XC)              :      -43.804300339809 Eh       

---------------
SCF CONVERGENCE
---------------

  Last Energy change         ...   -1.4853e-10  Tolerance :   1.0000e-08
  Last MAX-Density change    ...    1.1255e-13  Tolerance :   1.0000e-07
  Last RMS-Density change    ...    1.0723e-15  Tolerance :   5.0000e-09
  Last Orbital Gradient      ...    9.6940e-07  Tolerance :   1.0000e-05
  Last Orbital Rotation      ...    4.4110e-06  Tolerance :   1.0000e-05

             **** THE GBW FILE WAS UPDATED (AT-v/e/frag_06_c00001.gbw) ****
             **** DENSITY FILE WAS UPDATED (AT-v/e/frag_06_c00001.scfp.tmp) ****
             **** ENERGY FILE WAS UPDATED (AT-v/e/frag_06_c00001.en.tmp) ****
----------------
ORBITAL ENERGIES
----------------

  NO   OCC          E(Eh)            E(eV) 
   0   2.0000     -19.106336      -519.9098 
   1   2.0000     -14.353301      -390.5732 
   2   2.0000     -14.336568      -390.1179 
   3   2.0000     -14.302631      -389.1944 
   4   2.0000     -10.282383      -279.7979 
   5   2.0000     -10.249930      -278.9148 
   6   2.0000     -10.235314      -278.5171 
   7   2.0000     -10.151840      -276.2456 
   8   2.0000      -1.029628       -28.0176 
   9   2.0000      -0.962730       -26.1972 
  10   2.0000      -0.891894       -24.2697 
  11   2.0000      -0.879285       -23.9266 
  12   2.0000      -0.718265       -19.5450 
  13   2.0000      -0.668386       -18.1877 
  14   2.0000      -0.613675       -16.6989 
  15   2.0000      -0.550087       -14.9686 
  16   2.0000      -0.542453       -14.7609 
  17   2.0000      -0.515521       -14.0280 
  18   2.0000      -0.487518       -13.2661 
  19   2.0000      -0.468079       -12.7371 
  20   2.0000      -0.430953       -11.7268 
  21   2.0000      -0.424870       -11.5613 
  22   2.0000      -0.407160       -11.0794 
  23   2.0000      -0.400634       -10.9018 
  24   2.0000      -0.394527       -10.7356 
  25   2.0000      -0.372422       -10.1341 
  26   2.0000      -0.300357        -8.1731 
  27   2.0000      -0.284366        -7.7380 
  28   2.0000      -0.261624        -7.1192 
  29   2.0000      -0.251939        -6.8556 
  30   2.0000      -0.191099        -5.2001 
  31   0.0000      -0.061321        -1.6686 
  32   0.0000       0.029797         0.8108 
  33   0.0000       0.060286         1.6405 
  34   0.0000       0.072785         1.9806 
  35   0.0000       0.081359         2.2139 
  36   0.0000       0.100030         2.7220 
  37   0.0000       0.102335         2.7847 
  38   0.0000       0.124613         3.3909 
  39   0.0000       0.146801         3.9946 
  40   0.0000       0.171460         4.6657 
  41   0.0000       0.205133         5.5820 
  42   0.0000       0.216550         5.8926 
  43   0.0000       0.259722         7.0674 
  44   0.0000       0.280951         7.6451 
  45   0.0000       0.299963         8.1624 
  46   0.0000       0.349547         9.5117 
  47   0.0000       0.367567        10.0020 
  48   0.0000       0.387848        10.5539 
  49   0.0000       0.447744        12.1837 
  50   0.0000       0.462834        12.5943 
  51   0.0000       0.467519        12.7218 
  52   0.0000       0.474064        12.8999 
  53   0.0000       0.476946        12.9784 
  54   0.0000       0.481345        13.0981 
  55   0.0000       0.519704        14.1419 
  56   0.0000       0.532252        14.4833 
  57   0.0000       0.534057        14.5324 
  58   0.0000       0.548089        14.9143 
  59   0.0000       0.577033        15.7019 
  60   0.0000       0.595524        16.2050 
  61   0.0000       0.596996        16.2451 
  62   0.0000       0.624999        17.0071 
  63   0.0000       0.630530        17.1576 
  64   0.0000       0.652486        17.7551 
  65   0.0000       0.684691        18.6314 
  66   0.0000       0.702605        19.1189 
  67   0.0000       0.728218        19.8158 
  68   0.0000       0.743539        20.2327 
  69   0.0000       0.763520        20.7764 
  70   0.0000       0.779535        21.2122 
  71   0.0000       0.792743        21.5716 
  72   0.0000       0.825681        22.4679 
  73   0.0000       0.834169        22.6989 
  74   0.0000       0.868832        23.6421 
  75   0.0000       0.890086        24.2205 
  76   0.0000       0.913554        24.8591 
  77   0.0000       0.935521        25.4568 
  78   0.0000       0.936775        25.4910 
  79   0.0000       0.958901        26.0930 
  80   0.0000       0.980987        26.6940 
  81   0.0000       0.995015        27.0757 
  82   0.0000       1.017365        27.6839 
  83   0.0000       1.039614        28.2893 
  84   0.0000       1.050424        28.5835 
  85   0.0000       1.082462        29.4553 
  86   0.0000       1.084463        29.5097 
  87   0.0000       1.129310        30.7301 
  88   0.0000       1.175306        31.9817 
  89   0.0000       1.195157        32.5219 
  90   0.0000       1.215546        33.0767 
  91   0.0000       1.222032        33.2532 
  92   0.0000       1.240340        33.7514 
  93   0.0000       1.258456        34.2443 
  94   0.0000       1.357730        36.9457 
  95   0.0000       1.372440        37.3460 
  96   0.0000       1.379309        37.5329 
  97   0.0000       1.416497        38.5449 
  98   0.0000       1.460385        39.7391 
  99   0.0000       1.469721        39.9931 
 100   0.0000       1.486720        40.4557 
 101   0.0000       1.501542        40.8590 
 102   0.0000       1.514508        41.2119 
 103   0.0000       1.546940        42.0944 
 104   0.0000       1.558155        42.3996 
 105   0.0000       1.581132        43.0248 
 106   0.0000       1.626636        44.2630 
 107   0.0000       1.639085        44.6018 
 108   0.0000       1.655705        45.0540 
 109   0.0000       1.665814        45.3291 
 110   0.0000       1.690222        45.9933 
 111   0.0000       1.701198        46.2919 
 112   0.0000       1.715784        46.6889 
 113   0.0000       1.728931        47.0466 
 114   0.0000       1.763772        47.9947 
 115   0.0000       1.767133        48.0861 
 116   0.0000       1.782386        48.5012 
 117   0.0000       1.787964        48.6530 
 118   0.0000       1.874947        51.0199 
 119   0.0000       1.889857        51.4256 
 120   0.0000       1.903924        51.8084 
 121   0.0000       1.926504        52.4228 
 122   0.0000       1.961953        53.3875 
 123   0.0000       1.983744        53.9804 
 124   0.0000       2.077697        56.5370 
 125   0.0000       2.109508        57.4026 
 126   0.0000       2.116791        57.6008 
 127   0.0000       2.147130        58.4264 
 128   0.0000       2.163618        58.8750 
 129   0.0000       2.231942        60.7342 
 130   0.0000       2.244210        61.0681 
 131   0.0000       2.261288        61.5328 
 132   0.0000       2.289411        62.2981 
 133   0.0000       2.328474        63.3610 
 134   0.0000       2.332734        63.4769 
 135   0.0000       2.396123        65.2018 
 136   0.0000       2.403927        65.4142 
 137   0.0000       2.424630        65.9775 
 138   0.0000       2.475058        67.3497 
 139   0.0000       2.509293        68.2813 
 140   0.0000       2.559013        69.6343 
 141   0.0000       2.587800        70.4176 
 142   0.0000       2.612157        71.0804 
 143   0.0000       2.628779        71.5327 
 144   0.0000       2.704812        73.6017 
 145   0.0000       2.725841        74.1739 
 146   0.0000       2.739851        74.5551 
 147   0.0000       2.819707        76.7281 
 148   0.0000       2.841791        77.3291 
 149   0.0000       2.901298        78.9483 
 150   0.0000       2.942342        80.0652 
 151   0.0000       3.092417        84.1489 
 152   0.0000       3.126292        85.0707 
 153   0.0000       3.223649        87.7199 
 154   0.0000       3.270897        89.0056 
 155   0.0000       3.480007        94.6958 
 156   0.0000       3.535537        96.2069 
-------
TIMINGS
-------

Total SCF time: 0 days 0 hours 0 min 21 sec 

Total time                  ....      21.179 sec
Sum of individual times     ....      21.104 sec  ( 99.6%)

Fock matrix formation       ....      19.553 sec  ( 92.3%)
  Split-RI-J                ....       3.572 sec  ( 18.3% of F)
  Chain of spheres X        ....      14.457 sec  ( 73.9% of F)
  COS-X 1 center corr.      ....       0.000 sec  (  0.0% of F)
  XC integration            ....       1.472 sec  (  7.5% of F)
    Basis function eval.    ....       0.583 sec  ( 39.6% of XC)
    Density eval.           ....       0.252 sec  ( 17.1% of XC)
    XC-Functional eval.     ....       0.070 sec  (  4.8% of XC)
    XC-Potential eval.      ....       0.487 sec  ( 33.1% of XC)
Diagonalization             ....       0.053 sec  (  0.2%)
Density matrix formation    ....       0.035 sec  (  0.2%)
Population analysis         ....       0.000 sec  (  0.0%)
Initial guess               ....       0.265 sec  (  1.3%)
Orbital Transformation      ....       0.000 sec  (  0.0%)
Orbital Orthonormalization  ....       0.000 sec  (  0.0%)
DIIS solution               ....       0.018 sec  (  0.1%)
SOSCF solution              ....       0.114 sec  (  0.5%)
Grid generation             ....       1.066 sec  (  5.0%)


-------------------------------------------------------------------------------
                          DFT DISPERSION CORRECTION                            
                                                                               
                              DFTD3 V3.1  Rev 1                                
                          USING Becke-Johnson damping                          
-------------------------------------------------------------------------------
The B3LYP functional is recognized
Active option DFTDOPT                   ...         4   

molecular C6(AA) [au] = 2678.230908 


            DFT-D V3
 parameters
 s6 scaling factor         :     1.0000 
 a1 scaling factor         :     0.3981 
 s8 scaling factor         :     1.9889 
 a2 scaling factor         :     4.4211 
 ad hoc parameters k1-k3   :    16.0000     1.3333    -4.0000 

 Edisp/kcal,au: -14.487168350695  -0.023086769848 
 E6   /kcal   :  -7.154271155 
 E8   /kcal   :  -7.332897195 
 % E8         :  50.616497426 

-------------------------   ----------------
Dispersion correction           -0.023086770
-------------------------   ----------------


-------------------------   --------------------
FINAL SINGLE POINT ENERGY      -397.099853824459
-------------------------   --------------------



           ************************************************************
           *        Program running with 6 parallel MPI-processes     *
           *              working on a common directory               *
           ************************************************************
------------------------------------------------------------------------------
                         ORCA SCF GRADIENT CALCULATION
------------------------------------------------------------------------------

Gradient of the Kohn-Sham DFT energy:
Kohn-Sham wavefunction type      ... RKS
Hartree-Fock exchange scaling    ...    0.200
Number of operators              ...    1
Number of atoms                  ...   17
Basis set dimensions             ...  157
Integral neglect threshold       ... 2.5e-11
Integral primitive cutoff        ... 2.5e-12

Nuclear repulsion gradient       ... done
One Electron Gradient            ... done
Pre-screening matrix             ... done
RI-J gradient                    ... done
COSX-gradient                    ... done
Exchange-correlation gradient    ... done
Dispersion correction            ... done

------------------
CARTESIAN GRADIENT
------------------

   1   C   :   -0.019754137   -0.006026454   -0.000895543
   2   C   :   -0.040781268    0.033965160   -0.001594456
   3   N   :    0.032578959   -0.004536591    0.001232120
   4   N   :    0.008524412   -0.038167148   -0.001004458
   5   C   :    0.015468582    0.003183886    0.001980229
   6   N   :    0.003420334    0.006681172   -0.001683447
   7   C   :   -0.010688382   -0.014132126    0.008610230
   8   O   :    0.004023689    0.005507227   -0.003143768
   9   H   :   -0.000089101    0.004125820   -0.000166052
  10   H   :   -0.002899282   -0.006778375    0.000180577
  11   H   :   -0.002079417    0.000864026    0.001428145
  12   H   :    0.003377301    0.007991611    0.000588998
  13   H   :   -0.000642079    0.004504409    0.000321746
  14   H   :    0.000272417    0.004601328    0.000757639
  15   H   :    0.006121175   -0.000143781    0.000111165
  16   H   :   -0.005427942   -0.004867228   -0.001706019
  17   H   :    0.008802804    0.002769800   -0.001923604

Difference to translation invariance:
           :    0.0002280644   -0.0004572648    0.0030935012

Norm of the cartesian gradient     ...    0.0836465954
RMS gradient                       ...    0.0117128662
MAX gradient                       ...    0.0407812684

-------
TIMINGS
-------

Total SCF gradient time            ...        4.483 sec

One electron gradient       ....       0.086 sec  (  1.9%)
Prescreening matrices       ....       0.091 sec  (  2.0%)
RI-J Coulomb gradient       ....       0.693 sec  ( 15.5%)
COSX gradient               ....       1.913 sec  ( 42.7%)
XC gradient                 ....       1.175 sec  ( 26.2%)
------------------------------------------------------------------------------
                         ORCA GEOMETRY RELAXATION STEP
------------------------------------------------------------------------------

Reading the OPT-File                    .... done
Getting information on internals        .... done
Copying old internal coords+grads       .... done
Making the new internal coordinates     .... (new redundants).... done
Validating the new internal coordinates .... (new redundants).... done
Calculating the B-matrix                .... done
Calculating the G,G- and P matrices     .... done
Transforming gradient to internals      .... done
Projecting the internal gradient        .... done
Number of atoms                         ....  17
Number of internal coordinates          ....  86
Current Energy                          ....  -397.099853824 Eh
Current gradient norm                   ....     0.083646595 Eh/bohr
Maximum allowed component of the step   ....  0.300
Current trust radius                    ....  0.300
Evaluating the initial hessian          ....  (Almloef) done
Projecting the Hessian                  .... done
Forming the augmented Hessian           .... done
Diagonalizing the augmented Hessian     .... done
Last element of RFO vector              ....  0.977592145
Lowest eigenvalues of augmented Hessian:
 -0.011226208  0.018566745  0.023154098  0.029998352  0.031348729
Length of the computed step             ....  0.215333103
The final length of the internal step   ....  0.215333103
Converting the step to cartesian space:
 Initial RMS(Int)=    0.0232199657
Transforming coordinates:
 Iter   0:  RMS(Cart)=    0.0553841106 RMS(Int)=    0.0232303180
 Iter   1:  RMS(Cart)=    0.0008979867 RMS(Int)=    0.0005322703
 Iter   2:  RMS(Cart)=    0.0000260607 RMS(Int)=    0.0000205807
 Iter   3:  RMS(Cart)=    0.0000009830 RMS(Int)=    0.0000014055
 Iter   4:  RMS(Cart)=    0.0000000390 RMS(Int)=    0.0000001056
done
Storing new coordinates                 .... done

                                .--------------------.
          ----------------------|Geometry convergence|-------------------------
          Item                value                   Tolerance       Converged
          ---------------------------------------------------------------------
          RMS gradient        0.0077693754            0.0020000000      NO
          MAX gradient        0.0379162513            0.0030000000      NO
          RMS step            0.0232199657            0.0200000000      NO
          MAX step            0.0827969553            0.0300000000      NO
          ........................................................
          Max(Bonds)      0.0438      Max(Angles)    3.50
          Max(Dihed)        2.08      Max(Improp)    0.00
          ---------------------------------------------------------------------

The optimization has not yet converged - more geometry cycles are needed


    ---------------------------------------------------------------------------
                         Redundant Internal Coordinates
                            (Angstroem and degrees)

        Definition                    Value    dE/dq     Step     New-Value
    ----------------------------------------------------------------------------
     1. B(C   1,C   0)                1.3436 -0.021827  0.0154    1.3590   
     2. B(N   2,C   1)                1.3755 -0.022101  0.0214    1.3969   
     3. B(N   3,C   1)                1.3726 -0.037916  0.0341    1.4067   
     4. B(C   4,N   3)                1.2882  0.018238 -0.0117    1.2765   
     5. B(C   6,N   5)                1.3570  0.007903 -0.0049    1.3521   
     6. B(O   7,C   6)                1.2234 -0.002485  0.0021    1.2255   
     7. B(H   8,C   0)                1.0859 -0.003682  0.0052    1.0911   
     8. B(H   9,C   0)                1.0799 -0.007010  0.0096    1.0895   
     9. B(H  10,N   2)                1.0129 -0.001198  0.0014    1.0143   
    10. B(H  11,N   2)                1.0257 -0.003601  0.0058    1.0315   
    11. B(H  11,O   7)                1.9260 -0.002511  0.0404    1.9663   
    12. B(H  12,C   4)                1.1011  0.000009 -0.0000    1.1011   
    13. B(H  13,C   4)                1.1029  0.003703 -0.0055    1.0974   
    14. B(H  14,N   5)                1.0081 -0.003212  0.0038    1.0119   
    15. B(H  15,N   5)                1.0234 -0.009339  0.0121    1.0355   
    16. B(H  15,H  11)                2.2150 -0.003842  0.0193    2.2343   
    17. B(H  15,N   3)                1.9128 -0.003492  0.0438    1.9566   
    18. B(H  16,C   6)                1.1020 -0.008640  0.0129    1.1149   
    19. A(C   1,C   0,H   9)          124.45  0.001919   -0.32    124.13   
    20. A(H   8,C   0,H   9)          115.08 -0.002499    0.43    115.51   
    21. A(C   1,C   0,H   8)          120.47  0.000582   -0.12    120.35   
    22. A(N   2,C   1,N   3)          117.26  0.025154   -3.28    113.98   
    23. A(C   0,C   1,N   2)          117.25 -0.027307    3.50    120.76   
    24. A(C   0,C   1,N   3)          125.49  0.002154   -0.22    125.26   
    25. A(H  10,N   2,H  11)          109.42  0.002755   -0.10    109.32   
    26. A(C   1,N   2,H  10)          113.47  0.006639   -0.96    112.51   
    27. A(C   1,N   2,H  11)          110.75 -0.013904    2.68    113.43   
    28. A(C   1,N   3,H  15)          112.10 -0.007731    1.39    113.49   
    29. A(C   4,N   3,H  15)          125.90  0.011284   -2.10    123.80   
    30. A(C   1,N   3,C   4)          121.79 -0.003543    0.77    122.57   
    31. A(H  12,C   4,H  13)          115.25 -0.005086    0.90    116.15   
    32. A(N   3,C   4,H  13)          118.34  0.000818   -0.19    118.15   
    33. A(N   3,C   4,H  12)          126.41  0.004268   -0.71    125.70   
    34. A(C   6,N   5,H  14)          123.21  0.006270   -1.04    122.17   
    35. A(H  14,N   5,H  15)          118.07 -0.003752    0.61    118.67   
    36. A(C   6,N   5,H  15)          118.19 -0.002565    0.44    118.63   
    37. A(N   5,C   6,O   7)          123.26 -0.002479    0.53    123.79   
    38. A(O   7,C   6,H  16)          123.61  0.005149   -0.85    122.77   
    39. A(N   5,C   6,H  16)          113.12 -0.002674    0.32    113.44   
    40. A(C   6,O   7,H  11)          109.50  0.001256   -0.28    109.22   
    41. A(O   7,H  11,H  15)           74.41 -0.000894   -0.58     73.83   
    42. A(N   2,H  11,H  15)          112.93  0.000250    0.20    113.12   
    43. A(N   2,H  11,O   7)          170.10  0.001184    0.41    170.51   
    44. A(N   3,H  15,H  11)           71.88 -0.004276   -0.26     71.61   
    45. A(N   5,H  15,H  11)          109.93  0.004512    0.04    109.97   
    46. A(N   3,H  15,N   5)          169.25 -0.001638    0.99    170.24   
    47. D(N   2,C   1,C   0,H   8)      0.94  0.001368   -1.91     -0.97   
    48. D(N   3,C   1,C   0,H   9)     -0.04  0.000471   -0.19     -0.22   
    49. D(N   3,C   1,C   0,H   8)   -179.02  0.000317   -0.01   -179.03   
    50. D(N   2,C   1,C   0,H   9)    179.93  0.001522   -2.08    177.84   
    51. D(H  11,N   2,C   1,C   0)    153.01 -0.000783    0.94    153.95   
    52. D(H  10,N   2,C   1,N   3)   -150.53  0.002342   -2.02   -152.55   
    53. D(H  10,N   2,C   1,C   0)     29.50  0.001386   -0.29     29.22   
    54. D(H  11,N   2,C   1,N   3)    -27.03  0.000172   -0.79    -27.82   
    55. D(H  15,N   3,C   1,N   2)     -4.86  0.000595    1.52     -3.34   
    56. D(H  15,N   3,C   1,C   0)    175.10  0.001628   -0.37    174.73   
    57. D(C   4,N   3,C   1,C   0)      0.01  0.000937   -1.05     -1.04   
    58. D(C   4,N   3,C   1,N   2)   -179.95 -0.000096    0.85   -179.10   
    59. D(H  13,C   4,N   3,C   1)   -179.94 -0.000229    0.54   -179.40   
    60. D(H  12,C   4,N   3,H  15)   -174.39  0.000515   -0.79   -175.18   
    61. D(H  12,C   4,N   3,C   1)     -0.01  0.000195    0.19      0.18   
    62. D(H  13,C   4,N   3,H  15)      5.67  0.000092   -0.43      5.24   
    63. D(H  16,C   6,N   5,H  15)   -177.34  0.000893   -0.39   -177.73   
    64. D(H  16,C   6,N   5,H  14)     -5.92  0.000160   -0.23     -6.15   
    65. D(O   7,C   6,N   5,H  15)      2.19  0.000404    0.18      2.38   
    66. D(O   7,C   6,N   5,H  14)    173.62 -0.000329    0.34    173.96   
    67. D(H  11,O   7,C   6,H  16)    160.65 -0.000960    0.86    161.51   
    68. D(H  11,O   7,C   6,N   5)    -18.84 -0.000379    0.22    -18.62   
    69. D(H  15,H  11,O   7,C   6)     17.00  0.000370   -0.33     16.68   
    70. D(N   2,H  11,O   7,C   6)   -121.89 -0.001511    0.33   -121.56   
    71. D(H  15,H  11,N   2,H  10)    167.11 -0.003112    0.96    168.07   
    72. D(H  15,H  11,N   2,C   1)     41.30 -0.003771    0.36     41.67   
    73. D(O   7,H  11,N   2,H  10)    -56.33 -0.000934    0.32    -56.01   
    74. D(O   7,H  11,N   2,C   1)    177.86 -0.001593   -0.28    177.58   
    75. D(H  11,H  15,N   3,C   1)     16.52 -0.000150   -1.23     15.29   
    76. D(N   5,H  15,N   3,C   4)    -67.18  0.000162   -0.78    -67.96   
    77. D(N   5,H  15,N   3,C   1)    117.97  0.000371   -1.67    116.30   
    78. D(N   3,H  15,H  11,O   7)    150.81 -0.002897    1.48    152.29   
    79. D(N   5,H  15,H  11,O   7)    -17.97 -0.000883    0.46    -17.51   
    80. D(N   5,H  15,H  11,N   2)    154.98  0.000209    0.65    155.63   
    81. D(H  11,H  15,N   5,H  14)   -158.26 -0.000035   -0.20   -158.46   
    82. D(H  11,H  15,N   5,C   6)     13.61  0.000142   -0.20     13.42   
    83. D(N   3,H  15,N   5,H  14)    103.95  0.000920   -0.07    103.88   
    84. D(N   3,H  15,H  11,N   2)    -36.24 -0.001804    1.67    -34.57   
    85. D(N   3,H  15,N   5,C   6)    -84.18  0.001098   -0.06    -84.24   
    86. D(H  11,H  15,N   3,C   4)   -168.63 -0.000359   -0.34   -168.98   
    ----------------------------------------------------------------------------

         *************************************************************
         *                GEOMETRY OPTIMIZATION CYCLE   2            *
         *************************************************************
---------------------------------
CARTESIAN COORDINATES (ANGSTROEM)
---------------------------------
  C      3.118758   -0.754693   -0.047851
  C      1.765485   -0.638410   -0.092067
  N      0.959172   -1.758749   -0.308069
  N      1.049956    0.567049    0.026652
  C      1.624489    1.691949    0.210700
  N     -1.909746    0.302693   -0.224719
  C     -2.484587   -0.824067    0.253059
  O     -1.853196   -1.773115    0.703280
  H      3.592338   -1.730617   -0.164951
  H      3.800483    0.085085    0.082871
  H      1.381190   -2.613303    0.039048
  H      0.010097   -1.662919    0.084633
  H      2.710652    1.852790    0.293462
  H      0.994827    2.585941    0.303128
  H     -2.447235    1.033763   -0.672554
  H     -0.876208    0.360635   -0.247557
  H     -3.598176   -0.810232    0.201236

----------------------------
CARTESIAN COORDINATES (A.U.)
----------------------------
  NO LB      ZA    FRAG     MASS         X           Y           Z
   0 C     6.0000    0    12.011    5.893598   -1.426163   -0.090425
   1 C     6.0000    0    12.011    3.336284   -1.206420   -0.173981
   2 N     7.0000    0    14.007    1.812572   -3.323553   -0.582167
   3 N     7.0000    0    14.007    1.984129    1.071568    0.050365
   4 C     6.0000    0    12.011    3.069840    3.197320    0.398165
   5 N     7.0000    0    14.007   -3.608896    0.572007   -0.424658
   6 C     6.0000    0    12.011   -4.695189   -1.557261    0.478213
   7 O     8.0000    0    15.999   -3.502033   -3.350701    1.329006
   8 H     1.0000    0     1.008    6.788536   -3.270392   -0.311712
   9 H     1.0000    0     1.008    7.181872    0.160787    0.156603
  10 H     1.0000    0     1.008    2.610070   -4.938426    0.073791
  11 H     1.0000    0     1.008    0.019080   -3.142462    0.159933
  12 H     1.0000    0     1.008    5.122391    3.501265    0.554563
  13 H     1.0000    0     1.008    1.879951    4.886720    0.572828
  14 H     1.0000    0     1.008   -4.624604    1.953530   -1.270944
  15 H     1.0000    0     1.008   -1.655793    0.681501   -0.467814
  16 H     1.0000    0     1.008   -6.799568   -1.531117    0.380280

--------------------------------
INTERNAL COORDINATES (ANGSTROEM)
--------------------------------
 C      0   0   0     0.000000000000     0.00000000     0.00000000
 C      1   0   0     1.358978593909     0.00000000     0.00000000
 N      2   1   0     1.397124353883   120.73817246     0.00000000
 N      2   1   3     1.406843350587   125.24282473   181.98206687
 C      4   2   1     1.276464703809   122.57191926   358.97458065
 N      4   2   1     2.982097359234   114.94292049   178.10379004
 C      6   4   2     1.352147701133   117.77663030    34.07392758
 O      7   6   4     1.225579463428   123.78465571   355.18977899
 H      1   2   3     1.091063271675   120.34970815   359.00778020
 H      1   2   3     1.089524754465   124.12724676   177.82013943
 H      3   2   1     1.014323582387   112.49205630    29.22224050
 H      3   2   1     1.031572685058   113.42956015   153.94495153
 H      5   4   2     1.101121918517   125.70032135     0.17543465
 H      5   4   2     1.097378014001   118.15212087   180.59905897
 H      6   4   2     1.011887166650   120.02951304   215.28146004
 H      6   4   2     1.035412556713     6.38638268   294.92133196
 H      7   6   4     1.114879990205   113.44537581   175.08459412

---------------------------
INTERNAL COORDINATES (A.U.)
---------------------------
 C      0   0   0     0.000000000000     0.00000000     0.00000000
 C      1   0   0     2.568097364350     0.00000000     0.00000000
 N      2   1   0     2.640182403871   120.73817246     0.00000000
 N      2   1   3     2.658548645938   125.24282473   181.98206687
 C      4   2   1     2.412168709817   122.57191926   358.97458065
 N      4   2   1     5.635347313642   114.94292049   178.10379004
 C      6   4   2     2.555188847753   117.77663030    34.07392758
 O      7   6   4     2.316009541238   123.78465571   355.18977899
 H      1   2   3     2.061810778245   120.34970815   359.00778020
 H      1   2   3     2.058903402067   124.12724676   177.82013943
 H      3   2   1     1.916793781890   112.49205630    29.22224050
 H      3   2   1     1.949389861993   113.42956015   153.94495153
 H      5   4   2     2.080818866055   125.70032135     0.17543465
 H      5   4   2     2.073743911847   118.15212087   180.59905897
 H      6   4   2     1.912189623397   120.02951304   215.28146004
 H      6   4   2     1.956646167812     6.38638268   294.92133196
 H      7   6   4     2.106817853677   113.44537581   175.08459412



           ************************************************************
           *        Program running with 6 parallel MPI-processes     *
           *              working on a common directory               *
           ************************************************************
 One Electron integrals                  ... done
 Pre-screening matrix                    ... done


           ************************************************************
           *        Program running with 6 parallel MPI-processes     *
           *              working on a common directory               *
           ************************************************************

Diagonalization of the overlap matrix:
Smallest eigenvalue                        ... 2.480e-03
Time for diagonalization                   ...    0.007 sec
Threshold for overlap eigenvalues          ... 1.000e-08
Number of eigenvalues below threshold      ... 0
Time for construction of square roots      ...    0.003 sec
Total time needed                          ...    0.010 sec

-------------------
DFT GRID GENERATION
-------------------

General Integration Accuracy     IntAcc      ...  4.340
Radial Grid Type                 RadialGrid  ... Gauss-Chebyshev
Angular Grid (max. acc.)         AngularGrid ... Lebedev-110
Angular grid pruning method      GridPruning ... 3 (G Style)
Weight generation scheme         WeightScheme... Becke
Basis function cutoff            BFCut       ...    1.0000e-11
Integration weight cutoff        WCut        ...    1.0000e-14
Grids for H and He will be reduced by one unit

# of grid points (after initial pruning)     ...  20592 (   0.0 sec)
# of grid points (after weights+screening)   ...  19251 (   0.0 sec)
nearest neighbour list constructed           ...    0.0 sec
Grid point re-assignment to atoms done       ...    0.0 sec
Grid point division into batches done        ...    0.0 sec
Reduced shell lists constructed in    0.1 sec

Total number of grid points                  ...    19251
Total number of batches                      ...      311
Average number of points per batch           ...       61
Average number of grid points per atom       ...     1132
Average number of shells per batch           ...    60.08 (80.10%)
Average number of basis functions per batch  ...   122.23 (77.85%)
Average number of large shells per batch     ...    46.85 (77.98%)
Average number of large basis fcns per batch ...    94.96 (77.69%)
Maximum spatial batch extension              ...   8.25, 11.05, 15.76 au
Average spatial batch extension              ...   0.32,  0.35,  0.49 au

Time for grid setup =    0.104 sec

--------------------
COSX GRID GENERATION
--------------------

General Integration Accuracy     IntAcc      ...  3.340
Radial Grid Type                 RadialGrid  ... Gauss-Chebyshev
Angular Grid (max. acc.)         AngularGrid ... Lebedev-50
Angular grid pruning method      GridPruning ... 3 (G Style)
Weight generation scheme         WeightScheme... Becke
Basis function cutoff            BFCut       ...    1.0000e-11
Integration weight cutoff        WCut        ...    1.0000e-14
Grids for H and He will be reduced by one unit

# of grid points (after initial pruning)     ...   7478 (   0.0 sec)
# of grid points (after weights+screening)   ...   7030 (   0.0 sec)
nearest neighbour list constructed           ...    0.0 sec
Grid point re-assignment to atoms done       ...    0.0 sec
Grid point division into batches done        ...    0.0 sec
Reduced shell lists constructed in    0.0 sec

Total number of grid points                  ...     7030
Total number of batches                      ...      118
Average number of points per batch           ...       59
Average number of grid points per atom       ...      414
Average number of shells per batch           ...    61.10 (81.46%)
Average number of basis functions per batch  ...   125.10 (79.68%)
Average number of large shells per batch     ...    47.48 (77.71%)
Average number of large basis fcns per batch ...    96.14 (76.86%)
Maximum spatial batch extension              ...   6.95,  7.52, 19.91 au
Average spatial batch extension              ...   0.40,  0.43,  0.89 au

Overlap Fitting                  UseSFitting ... on
Constructing numerical overlap ... done (      0.0 sec)
Inverting numerical overlap    ... done (      0.0 sec)
Obtaining analytic overlap     ... done (      0.0 sec)
Final contraction and storage  ... done (      0.0 sec)


General Integration Accuracy     IntAcc      ...  3.670
Radial Grid Type                 RadialGrid  ... Gauss-Chebyshev
Angular Grid (max. acc.)         AngularGrid ... Lebedev-50
Angular grid pruning method      GridPruning ... 3 (G Style)
Weight generation scheme         WeightScheme... Becke
Basis function cutoff            BFCut       ...    1.0000e-11
Integration weight cutoff        WCut        ...    1.0000e-14
Grids for H and He will be reduced by one unit

# of grid points (after initial pruning)     ...   9596 (   0.0 sec)
# of grid points (after weights+screening)   ...   9002 (   0.0 sec)
nearest neighbour list constructed           ...    0.0 sec
Grid point re-assignment to atoms done       ...    0.0 sec
Grid point division into batches done        ...    0.0 sec
Reduced shell lists constructed in    0.0 sec

Total number of grid points                  ...     9002
Total number of batches                      ...      150
Average number of points per batch           ...       60
Average number of grid points per atom       ...      530
Average number of shells per batch           ...    61.19 (81.59%)
Average number of basis functions per batch  ...   125.35 (79.84%)
Average number of large shells per batch     ...    47.31 (77.31%)
Average number of large basis fcns per batch ...    96.23 (76.77%)
Maximum spatial batch extension              ...   6.67,  8.80, 24.43 au
Average spatial batch extension              ...   0.39,  0.40,  0.81 au

Overlap Fitting                  UseSFitting ... on
Constructing numerical overlap ... done (      0.0 sec)
Inverting numerical overlap    ... done (      0.0 sec)
Obtaining analytic overlap     ... done (      0.0 sec)
Final contraction and storage  ... done (      0.0 sec)


General Integration Accuracy     IntAcc      ...  4.010
Radial Grid Type                 RadialGrid  ... Gauss-Chebyshev
Angular Grid (max. acc.)         AngularGrid ... Lebedev-110
Angular grid pruning method      GridPruning ... 3 (G Style)
Weight generation scheme         WeightScheme... Becke
Basis function cutoff            BFCut       ...    1.0000e-11
Integration weight cutoff        WCut        ...    1.0000e-14
Grids for H and He will be reduced by one unit

# of grid points (after initial pruning)     ...  17710 (   0.0 sec)
# of grid points (after weights+screening)   ...  16585 (   0.0 sec)
nearest neighbour list constructed           ...    0.0 sec
Grid point re-assignment to atoms done       ...    0.0 sec
Grid point division into batches done        ...    0.0 sec
Reduced shell lists constructed in    0.1 sec

Total number of grid points                  ...    16585
Total number of batches                      ...      268
Average number of points per batch           ...       61
Average number of grid points per atom       ...      976
Average number of shells per batch           ...    60.09 (80.12%)
Average number of basis functions per batch  ...   122.52 (78.04%)
Average number of large shells per batch     ...    47.17 (78.51%)
Average number of large basis fcns per batch ...    95.48 (77.93%)
Maximum spatial batch extension              ...   7.91, 10.36, 15.61 au
Average spatial batch extension              ...   0.32,  0.35,  0.52 au

Overlap Fitting                  UseSFitting ... on
Constructing numerical overlap ... done (      0.0 sec)
Inverting numerical overlap    ... done (      0.0 sec)
Obtaining analytic overlap     ... done (      0.0 sec)
Final contraction and storage  ... done (      0.0 sec)

Time for X-Grid setup             =    0.334 sec
--------------
SCF ITERATIONS
--------------
ITER       Energy         Delta-E        Max-DP      RMS-DP      [F,P]     Damp
               ***  Starting incremental Fock matrix formation  ***
  0   -397.0821434830   0.000000000000 0.00404522  0.00017279  0.0124824 0.7000
                      *** Initiating the SOSCF procedure ***
                      *** Re-Reading the Fockian *** 
                      *** Removing any level shift *** 
ITER      Energy       Delta-E        Grad      Rot      Max-DP    RMS-DP
  1   -397.08288095  -0.0007374698  0.001010  0.001010  0.011034  0.000518
               *** Restarting incremental Fock matrix formation ***
  2   -397.08475909  -0.0018781323  0.001246  0.006655  0.007029  0.000185
  3   -397.08471162   0.0000474664  0.003109  0.003525  0.004950  0.000098
  4   -397.08484356  -0.0001319392  0.000278  0.001362  0.001343  0.000040
  5   -397.08484169   0.0000018709  0.000360  0.000800  0.000821  0.000021
  6   -397.08484721  -0.0000055184  0.000069  0.000210  0.000259  0.000007
  7   -397.08484697   0.0000002334  0.000138  0.000153  0.000175  0.000005
  8   -397.08484729  -0.0000003190  0.000010  0.000026  0.000043  0.000001
  9   -397.08484729  -0.0000000029  0.000013  0.000021  0.000029  0.000001
 10   -397.08484730  -0.0000000014  0.000004  0.000020  0.000023  0.000000
 11   -397.08484729   0.0000000085  0.000005  0.000009  0.000013  0.000000
                 **** Energy Check signals convergence ****
[...]
Total number of batches                      ...      147
Average number of points per batch           ...       61
Average number of grid points per atom       ...      531
Average number of shells per batch           ...    61.23 (81.64%)
Average number of basis functions per batch  ...   125.62 (80.01%)
Average number of large shells per batch     ...    48.00 (78.39%)
Average number of large basis fcns per batch ...    97.46 (77.59%)
Maximum spatial batch extension              ...   6.58,  4.96, 18.24 au
Average spatial batch extension              ...   0.41,  0.38,  0.60 au

Overlap Fitting                  UseSFitting ... on
Constructing numerical overlap ... done (      0.0 sec)
Inverting numerical overlap    ... done (      0.0 sec)
Obtaining analytic overlap     ... done (      0.0 sec)
Final contraction and storage  ... done (      0.0 sec)


General Integration Accuracy     IntAcc      ...  4.010
Radial Grid Type                 RadialGrid  ... Gauss-Chebyshev
Angular Grid (max. acc.)         AngularGrid ... Lebedev-110
Angular grid pruning method      GridPruning ... 3 (G Style)
Weight generation scheme         WeightScheme... Becke
Basis function cutoff            BFCut       ...    1.0000e-11
Integration weight cutoff        WCut        ...    1.0000e-14
Grids for H and He will be reduced by one unit

# of grid points (after initial pruning)     ...  17710 (   0.0 sec)
# of grid points (after weights+screening)   ...  16604 (   0.0 sec)
nearest neighbour list constructed           ...    0.0 sec
Grid point re-assignment to atoms done       ...    0.0 sec
Grid point division into batches done        ...    0.0 sec
Reduced shell lists constructed in    0.1 sec

Total number of grid points                  ...    16604
Total number of batches                      ...      267
Average number of points per batch           ...       62
Average number of grid points per atom       ...      977
Average number of shells per batch           ...    60.30 (80.41%)
Average number of basis functions per batch  ...   123.13 (78.43%)
Average number of large shells per batch     ...    47.26 (78.37%)
Average number of large basis fcns per batch ...    96.00 (77.97%)
Maximum spatial batch extension              ...   8.45,  8.26, 13.49 au
Average spatial batch extension              ...   0.34,  0.35,  0.42 au

Overlap Fitting                  UseSFitting ... on
Constructing numerical overlap ... done (      0.0 sec)
Inverting numerical overlap    ... done (      0.0 sec)
Obtaining analytic overlap     ... done (      0.0 sec)
Final contraction and storage  ... done (      0.0 sec)

Time for X-Grid setup             =    0.307 sec
--------------
SCF ITERATIONS
--------------
ITER       Energy         Delta-E        Max-DP      RMS-DP      [F,P]     Damp
               ***  Starting incremental Fock matrix formation  ***
                      *** Initiating the SOSCF procedure ***
                      *** Re-Reading the Fockian *** 
                      *** Removing any level shift *** 
ITER      Energy       Delta-E        Grad      Rot      Max-DP    RMS-DP
  0   -397.09124642 -397.0912464175  0.000483  0.000483  0.002135  0.000069
               *** Restarting incremental Fock matrix formation ***
  1   -397.09128551  -0.0000390970  0.000214  0.000910  0.000917  0.000038
  2   -397.09128785  -0.0000023382  0.000416  0.000592  0.000663  0.000025
  3   -397.09128983  -0.0000019765  0.000196  0.000242  0.000392  0.000014
  4   -397.09129044  -0.0000006109  0.000073  0.000177  0.000208  0.000007
  5   -397.09129055  -0.0000001083  0.000048  0.000094  0.000132  0.000005
  6   -397.09129064  -0.0000000948  0.000024  0.000058  0.000093  0.000002
  7   -397.09129065  -0.0000000027  0.000020  0.000025  0.000052  0.000001
  8   -397.09129066  -0.0000000113  0.000004  0.000011  0.000018  0.000000
  9   -397.09129066   0.0000000011  0.000007  0.000008  0.000013  0.000000
                  ***Gradient check signals convergence***
              ***Rediagonalizing the Fockian in SOSCF/NRSCF***

               *****************************************************
               *                     SUCCESS                       *
               *           SCF CONVERGED AFTER  10 CYCLES          *
               *****************************************************

Setting up the final grid:

General Integration Accuracy     IntAcc      ...  4.670
Radial Grid Type                 RadialGrid  ... Gauss-Chebyshev
Angular Grid (max. acc.)         AngularGrid ... Lebedev-302
Angular grid pruning method      GridPruning ... 3 (G Style)
Weight generation scheme         WeightScheme... Becke
Basis function cutoff            BFCut       ...    1.0000e-11
Integration weight cutoff        WCut        ...    1.0000e-14
Grids for H and He will be reduced by one unit

# of grid points (after initial pruning)     ...  80242 (   0.0 sec)
# of grid points (after weights+screening)   ...  74053 (   0.1 sec)
nearest neighbour list constructed           ...    0.0 sec
Grid point re-assignment to atoms done       ...    0.0 sec
Grid point division into batches done        ...    0.3 sec
Reduced shell lists constructed in    0.5 sec

Total number of grid points                  ...    74053
Total number of batches                      ...     1165
Average number of points per batch           ...       63
Average number of grid points per atom       ...     4356
Average number of shells per batch           ...    58.63 (78.18%)
Average number of basis functions per batch  ...   119.10 (75.86%)
Average number of large shells per batch     ...    45.05 (76.84%)
Average number of large basis fcns per batch ...    91.28 (76.64%)
Maximum spatial batch extension              ...  10.37,  8.17, 13.08 au
Average spatial batch extension              ...   0.23,  0.23,  0.25 au

Final grid set up in    0.6 sec
Final integration                            ... done (   0.3 sec)
Change in XC energy                          ...    -0.000382873
Integrated number of electrons               ...    62.000080476
Previous integrated no of electrons          ...    62.002149561
Old exchange energy                            =    -10.385472927 Eh
New exchange energy                            =    -10.385248183 Eh
Exchange energy change after final integration =      0.000224745 Eh
Total energy after final integration           =   -397.091448783 Eh
Final COS-X integration done in                =     1.860 sec

----------------
TOTAL SCF ENERGY
----------------

Total Energy       :         -397.09144878 Eh          -10805.40766 eV

Components:
Nuclear Repulsion  :          356.41052018 Eh            9698.42331 eV
Electronic Energy  :         -753.50196897 Eh          -20503.83097 eV
One Electron Energy:        -1245.45498508 Eh          -33890.55311 eV
Two Electron Energy:          491.95301611 Eh           13386.72214 eV

Virial components:
Potential Energy   :         -791.69484372 Eh          -21543.11193 eV
Kinetic Energy     :          394.60339494 Eh           10737.70427 eV
Virial Ratio       :            2.00630520


DFT components:
N(Alpha)           :       31.000040237956 electrons
N(Beta)            :       31.000040237956 electrons
N(Total)           :       62.000080475913 electrons
E(X)               :      -41.293077421386 Eh       
E(C)               :       -2.467554290695 Eh       
E(XC)              :      -43.760631712081 Eh       

---------------
SCF CONVERGENCE
---------------

  Last Energy change         ...    1.4129e-09  Tolerance :   1.0000e-08
  Last MAX-Density change    ...    1.7523e-14  Tolerance :   1.0000e-07
  Last RMS-Density change    ...    1.5390e-16  Tolerance :   5.0000e-09
  Last Orbital Gradient      ...    7.4657e-07  Tolerance :   1.0000e-05
  Last Orbital Rotation      ...    1.7612e-06  Tolerance :   1.0000e-05

             **** THE GBW FILE WAS UPDATED (AT-v/e/frag_06_c00001.gbw) ****
             **** DENSITY FILE WAS UPDATED (AT-v/e/frag_06_c00001.scfp.tmp) ****
             **** ENERGY FILE WAS UPDATED (AT-v/e/frag_06_c00001.en.tmp) ****
----------------
ORBITAL ENERGIES
----------------

  NO   OCC          E(Eh)            E(eV) 
   0   2.0000     -19.107496      -519.9414 
   1   2.0000     -14.352612      -390.5544 
   2   2.0000     -14.342389      -390.2762 
   3   2.0000     -14.311005      -389.4222 
   4   2.0000     -10.284167      -279.8464 
   5   2.0000     -10.247128      -278.8385 
   6   2.0000     -10.241696      -278.6907 
   7   2.0000     -10.154369      -276.3144 
   8   2.0000      -1.027905       -27.9707 
   9   2.0000      -0.957267       -26.0486 
  10   2.0000      -0.897269       -24.4159 
  11   2.0000      -0.876004       -23.8373 
  12   2.0000      -0.722143       -19.6505 
  13   2.0000      -0.651876       -17.7384 
  14   2.0000      -0.612017       -16.6538 
  15   2.0000      -0.549882       -14.9630 
  16   2.0000      -0.544192       -14.8082 
  17   2.0000      -0.510813       -13.8999 
  18   2.0000      -0.486200       -13.2302 
  19   2.0000      -0.470784       -12.8107 
  20   2.0000      -0.451771       -12.2933 
  21   2.0000      -0.419183       -11.4065 
  22   2.0000      -0.407279       -11.0826 
  23   2.0000      -0.396870       -10.7994 
  24   2.0000      -0.387243       -10.5374 
  25   2.0000      -0.360782        -9.8174 
  26   2.0000      -0.316207        -8.6044 
  27   2.0000      -0.276928        -7.5356 
  28   2.0000      -0.264289        -7.1917 
  29   2.0000      -0.254599        -6.9280 
  30   2.0000      -0.196133        -5.3371 
  31   0.0000      -0.038583        -1.0499 
  32   0.0000       0.030374         0.8265 
  33   0.0000       0.054653         1.4872 
  34   0.0000       0.063917         1.7393 
  35   0.0000       0.080629         2.1940 
  36   0.0000       0.085921         2.3380 
  37   0.0000       0.106071         2.8863 
  38   0.0000       0.129582         3.5261 
  39   0.0000       0.135006         3.6737 
  40   0.0000       0.141757         3.8574 
  41   0.0000       0.193785         5.2731 
  42   0.0000       0.201407         5.4806 
  43   0.0000       0.263454         7.1689 
  44   0.0000       0.271351         7.3838 
  45   0.0000       0.295337         8.0365 
  46   0.0000       0.333482         9.0745 
  47   0.0000       0.355467         9.6728 
  48   0.0000       0.375108        10.2072 
  49   0.0000       0.439523        11.9600 
  50   0.0000       0.454265        12.3612 
  51   0.0000       0.473027        12.8717 
  52   0.0000       0.482360        13.1257 
  53   0.0000       0.486585        13.2406 
  54   0.0000       0.494460        13.4549 
  55   0.0000       0.519047        14.1240 
  56   0.0000       0.524631        14.2759 
  57   0.0000       0.535488        14.5714 
  58   0.0000       0.545872        14.8539 
  59   0.0000       0.565110        15.3774 
  60   0.0000       0.590696        16.0737 
  61   0.0000       0.604763        16.4565 
  62   0.0000       0.627871        17.0852 
  63   0.0000       0.637127        17.3371 
  64   0.0000       0.648667        17.6511 
  65   0.0000       0.664795        18.0900 
  66   0.0000       0.688025        18.7221 
  67   0.0000       0.718195        19.5431 
  68   0.0000       0.728543        19.8247 
  69   0.0000       0.758430        20.6379 
  70   0.0000       0.766004        20.8440 
  71   0.0000       0.784441        21.3457 
  72   0.0000       0.797485        21.7007 
  73   0.0000       0.827545        22.5186 
  74   0.0000       0.860618        23.4186 
  75   0.0000       0.886163        24.1137 
  76   0.0000       0.898250        24.4426 
  77   0.0000       0.920272        25.0419 
  78   0.0000       0.938094        25.5268 
  79   0.0000       0.969185        26.3729 
  80   0.0000       0.979414        26.6512 
  81   0.0000       1.000268        27.2187 
  82   0.0000       1.022166        27.8145 
  83   0.0000       1.039216        28.2785 
  84   0.0000       1.054266        28.6880 
  85   0.0000       1.078166        29.3384 
  86   0.0000       1.096613        29.8403 
  87   0.0000       1.121276        30.5115 
  88   0.0000       1.151418        31.3317 
  89   0.0000       1.197283        32.5797 
  90   0.0000       1.211331        32.9620 
  91   0.0000       1.239968        33.7412 
  92   0.0000       1.256297        34.1856 
  93   0.0000       1.299909        35.3723 
  94   0.0000       1.333669        36.2910 
  95   0.0000       1.355582        36.8873 
  96   0.0000       1.393251        37.9123 
  97   0.0000       1.399258        38.0758 
  98   0.0000       1.429459        38.8976 
  99   0.0000       1.467692        39.9379 
 100   0.0000       1.475120        40.1400 
 101   0.0000       1.497633        40.7527 
 102   0.0000       1.506849        41.0034 
 103   0.0000       1.530604        41.6498 
 104   0.0000       1.562822        42.5266 
 105   0.0000       1.584333        43.1119 
 106   0.0000       1.613672        43.9103 
 107   0.0000       1.633544        44.4510 
 108   0.0000       1.654064        45.0094 
 109   0.0000       1.665289        45.3148 
 110   0.0000       1.678237        45.6672 
 111   0.0000       1.696851        46.1737 
 112   0.0000       1.705857        46.4187 
 113   0.0000       1.711648        46.5763 
 114   0.0000       1.753122        47.7049 
 115   0.0000       1.763585        47.9896 
 116   0.0000       1.791315        48.7441 
 117   0.0000       1.794806        48.8392 
 118   0.0000       1.869048        50.8594 
 119   0.0000       1.892910        51.5087 
 120   0.0000       1.898932        51.6726 
 121   0.0000       1.912179        52.0330 
 122   0.0000       1.957747        53.2730 
 123   0.0000       1.980241        53.8851 
 124   0.0000       2.046274        55.6820 
 125   0.0000       2.102691        57.2171 
 126   0.0000       2.110729        57.4359 
 127   0.0000       2.132538        58.0293 
 128   0.0000       2.150374        58.5146 
 129   0.0000       2.225049        60.5467 
 130   0.0000       2.237636        60.8892 
 131   0.0000       2.242208        61.0136 
 132   0.0000       2.269545        61.7574 
 133   0.0000       2.294684        62.4415 
 134   0.0000       2.310622        62.8752 
 135   0.0000       2.347363        63.8750 
 136   0.0000       2.368177        64.4414 
 137   0.0000       2.394864        65.1676 
 138   0.0000       2.487833        67.6974 
 139   0.0000       2.520591        68.5888 
 140   0.0000       2.540584        69.1328 
 141   0.0000       2.577112        70.1268 
 142   0.0000       2.615972        71.1842 
 143   0.0000       2.649094        72.0855 
 144   0.0000       2.697211        73.3949 
 145   0.0000       2.723867        74.1202 
 146   0.0000       2.743939        74.6664 
 147   0.0000       2.813502        76.5593 
 148   0.0000       2.841889        77.3317 
 149   0.0000       2.866579        78.0036 
 150   0.0000       2.934893        79.8625 
 151   0.0000       3.086040        83.9754 
 152   0.0000       3.115070        84.7654 
 153   0.0000       3.139670        85.4348 
 154   0.0000       3.196154        86.9718 
 155   0.0000       3.469021        94.3969 
 156   0.0000       3.521258        95.8183 
-------
TIMINGS
-------

Total SCF time: 0 days 0 hours 0 min 15 sec 

Total time                  ....      15.458 sec
Sum of individual times     ....      15.373 sec  ( 99.5%)

Fock matrix formation       ....      14.172 sec  ( 91.7%)
  Split-RI-J                ....       2.598 sec  ( 18.3% of F)
  Chain of spheres X        ....      10.498 sec  ( 74.1% of F)
  COS-X 1 center corr.      ....       0.000 sec  (  0.0% of F)
  XC integration            ....       1.031 sec  (  7.3% of F)
    Basis function eval.    ....       0.411 sec  ( 39.8% of XC)
    Density eval.           ....       0.176 sec  ( 17.0% of XC)
    XC-Functional eval.     ....       0.051 sec  (  5.0% of XC)
    XC-Potential eval.      ....       0.312 sec  ( 30.3% of XC)
Diagonalization             ....       0.007 sec  (  0.0%)
Density matrix formation    ....       0.029 sec  (  0.2%)
Population analysis         ....       0.000 sec  (  0.0%)
Initial guess               ....       0.007 sec  (  0.0%)
Orbital Transformation      ....       0.000 sec  (  0.0%)
Orbital Orthonormalization  ....       0.005 sec  (  0.0%)
DIIS solution               ....       0.001 sec  (  0.0%)
SOSCF solution              ....       0.142 sec  (  0.9%)
Grid generation             ....       1.015 sec  (  6.6%)


-------------------------------------------------------------------------------
                          DFT DISPERSION CORRECTION                            
                                                                               
                              DFTD3 V3.1  Rev 1                                
                          USING Becke-Johnson damping                          
-------------------------------------------------------------------------------
The B3LYP functional is recognized
Active option DFTDOPT                   ...         4   

molecular C6(AA) [au] = 2680.060936 


            DFT-D V3
 parameters
 s6 scaling factor         :     1.0000 
 a1 scaling factor         :     0.3981 
 s8 scaling factor         :     1.9889 
 a2 scaling factor         :     4.4211 
 ad hoc parameters k1-k3   :    16.0000     1.3333    -4.0000 

 Edisp/kcal,au: -14.207951638571  -0.022641809742 
 E6   /kcal   :  -7.019764704 
 E8   /kcal   :  -7.188186935 
 % E8         :  50.592704126 

-------------------------   ----------------
Dispersion correction           -0.022641810
-------------------------   ----------------


-------------------------   --------------------
FINAL SINGLE POINT ENERGY      -397.114090592846
-------------------------   --------------------

                                *** OPTIMIZATION RUN DONE ***

                            ***************************************
                            *     ORCA property calculations      *
                            ***************************************

                                    ---------------------
                                    Active property flags
                                    ---------------------
   (+) Dipole Moment


------------------------------------------------------------------------------
                       ORCA ELECTRIC PROPERTIES CALCULATION
------------------------------------------------------------------------------

Dipole Moment Calculation                       ... on
Quadrupole Moment Calculation                   ... off
Polarizability Calculation                      ... off
GBWName                                         ... AT-v/e/frag_06_c00001.gbw
Electron density file                           ... AT-v/e/frag_06_c00001.scfp.tmp
The origin for moment calculation is the CENTER OF MASS  = ( 0.452866, -0.801008 -0.019564)

-------------
DIPOLE MOMENT
-------------
                                X             Y             Z
Electronic contribution:     -3.27759      -1.42263      -0.40814
Nuclear contribution   :      3.03788       2.77478       0.55745
                        -----------------------------------------
Total Dipole Moment    :     -0.23971       1.35215       0.14931
                        -----------------------------------------
Magnitude (a.u.)       :      1.38133
Magnitude (Debye)      :      3.51106


Timings for individual modules:

Sum of individual times         ...      493.929 sec (=   8.232 min)
GTO integral calculation        ...       16.928 sec (=   0.282 min)   3.4 %
SCF iterations                  ...      377.881 sec (=   6.298 min)  76.5 %
SCF Gradient evaluation         ...       96.637 sec (=   1.611 min)  19.6 %
Geometry relaxation             ...        2.483 sec (=   0.041 min)   0.5 %
                             ****ORCA TERMINATED NORMALLY****
TOTAL RUN TIME: 0 days 0 hours 8 minutes 19 seconds 682 msec
