
                                 *****************
                                 * O   R   C   A *
                                 *****************

           --- An Ab Initio, DFT and Semiempirical electronic structure package ---

                  #######################################################
                  #                        -***-                        #
                  #  Department of molecular theory and spectroscopy    #
                  #              Directorship: Frank Neese              #
                  # Max Planck Institute for Chemical Energy Conversion #
                  #                  D-45470 Muelheim/Ruhr              #
                  #                       Germany                       #
                  #                                                     #
                  #                  All rights reserved                #
                  #                        -***-                        #
                  #######################################################


                         Program Version 4.0.1.2 - RELEASE -


 With contributions from (in alphabetic order):
   Daniel Aravena         : Magnetic Properties
   Michael Atanasov       : Ab Initio Ligand Field Theory
   Ute Becker             : Parallelization
   Martin Brehm           : Molecular dynamics
   Dmytro Bykov           : SCF Hessian
   Vijay G. Chilkuri      : MRCI spin determinant printing
   Dipayan Datta          : RHF DLPNO-CCSD density
   Achintya Kumar Dutta   : EOM-CC, STEOM-CC
   Dmitry Ganyushin       : Spin-Orbit,Spin-Spin,Magnetic field MRCI
   Yang Guo               : DLPNO-NEVPT2, CIM, IAO-localization
   Andreas Hansen         : Spin unrestricted coupled pair/coupled cluster methods
   Lee Huntington         : MR-EOM, pCC
   Robert Izsak           : Overlap fitted RIJCOSX, COSX-SCS-MP3, EOM
   Christian Kollmar      : KDIIS, OOCD, Brueckner-CCSD(T), CCSD density
   Simone Kossmann        : Meta GGA functionals, TD-DFT gradient, OOMP2, MP2 Hessian
   Martin Krupicka        : AUTO-CI
   Dagmar Lenk            : GEPOL surface
   Dimitrios Liakos       : Extrapolation schemes; parallel MDCI
   Dimitrios Manganas     : ROCIS; embedding schemes
   Dimitrios Pantazis     : SARC Basis sets
   Taras Petrenko         : DFT Hessian,TD-DFT gradient, ASA, ECA, R-Raman, ABS, FL, XAS/XES, NRVS
   Peter Pinski           : DLPNO-MP2
   Christoph Reimann      : Effective Core Potentials
   Marius Retegan         : Local ZFS, SOC
   Christoph Riplinger    : Optimizer, TS searches, QM/MM, DLPNO-CCSD(T), (RO)-DLPNO pert. Triples
   Tobias Risthaus        : Range-separated hybrids, TD-DFT gradient, RPA, STAB
   Michael Roemelt        : Restricted open shell CIS
   Masaaki Saitow         : Open-shell DLPNO
   Barbara Sandhoefer     : DKH picture change effects
   Kantharuban Sivalingam : CASSCF convergence, NEVPT2, FIC-MRCI
   Georgi Stoychev        : AutoAux
   Boris Wezisla          : Elementary symmetry handling
   Frank Wennmohs         : Technical directorship


 We gratefully acknowledge several colleagues who have allowed us to
 interface, adapt or use parts of their codes:
   Stefan Grimme, W. Hujo, H. Kruse,             : VdW corrections, initial TS optimization,
                  C. Bannwarth                     DFT functionals, gCP, sTDA/sTD-DF
   Ed Valeev                                     : LibInt (2-el integral package), F12 methods
   Garnet Chan, S. Sharma, J. Yang, R. Olivares  : DMRG
   Ulf Ekstrom                                   : XCFun DFT Library
   Mihaly Kallay                                 : mrcc  (arbitrary order and MRCC methods)
   Andreas Klamt, Michael Diedenhofen            : otool_cosmo (COSMO solvation model)
   Jiri Pittner, Ondrej Demel                    : Mk-CCSD
   Frank Weinhold                                : gennbo (NPA and NBO analysis)
   Christopher J. Cramer and Donald G. Truhlar   : smd solvation model


 Your calculation uses the libint2 library for the computation of 2-el integrals
 For citations please refer to: http://libint.valeyev.net

 This ORCA versions uses:
   CBLAS   interface :  Fast vector & matrix operations
   LAPACKE interface :  Fast linear algebra routines
   SCALAPACK package :  Parallel linear algebra routines


Your calculation utilizes the atom-pairwise dispersion correction
with the Becke-Johnson damping scheme (D3BJ)
Cite in your paper:
S.Grimme, S.Ehrlich, L.Goerigk, J Comput Chem, (2011), 32, 1456–1465 
S.Grimme, J.Antony, S.Ehrlich and H.Krieg, J.Chem.Phys., 132, (2010), 154104 
   

Your calculation utilizes the basis: cc-pVDZ 
       H, B-Ne : Obtained from the ccRepo (grant-hill.group.shef.ac.uk/ccrepo) Feb. 2017
                 T. H. Dunning, Jr., J. Chem. Phys. 90, 1007 (1989)
            He : Obtained from the ccRepo (grant-hill.group.shef.ac.uk/ccrepo) Feb. 2017
                 D. E. Woon, T. H. Dunning, Jr., J. Chem. Phys. 100, 2975 (1994)
  Li-Be, Na-Mg : Obtained from the ccRepo (grant-hill.group.shef.ac.uk/ccrepo) Feb. 2017
                 B. P. Prascher, D. E. Woon, K. A. Peterson, T. H. Dunning, Jr., A. K. Wilson, Theor. Chem. Acc. 128, 69 (2011)
         Al-Ar : Obtained from the ccRepo (grant-hill.group.shef.ac.uk/ccrepo) Feb. 2017
                 D. E. Woon, T. H. Dunning, Jr., J. Chem. Phys. 98, 1358 (1993)
            Ca : Obtained from the Peterson Research Group Website (tyr0.chem.wsu.edu/~kipeters) Feb. 2017
                 J. Koput, K. A. Peterson, J. Phys. Chem. 106, 9595 (2002)
         Sc-Zn : Obtained from the ccRepo (grant-hill.group.shef.ac.uk/ccrepo) Feb. 2017
                 N. B. Balabanov, K. A. Peterson, J. Chem. Phys. 123, 064107 (2005)
                 N. B. Balabanov, K. A. Peterson, J. Chem. Phys. 125, 074110 (2006)
         Ga-Kr : Obtained from the ccRepo (grant-hill.group.shef.ac.uk/ccrepo) Feb. 2017
                 A. K. Wilson, D. E. Woon, K. A. Peterson, T. H. Dunning, Jr., J. Chem. Phys. 110, 7667 (1999)

Your calculation utilizes the auxiliary basis: def2/J
   F. Weigend, Phys. Chem. Chem. Phys. 8, 1057 (2006).

================================================================================
                                        WARNINGS
                       Please study these warnings very carefully!
================================================================================

Warning: TCutStore was < 0. Adjusted to Thresh (uncritical)

WARNING: Geometry Optimization
  ===> : Switching off AutoStart
         For restart on a previous wavefunction, please use MOREAD

INFO   : the flag for use of LIBINT has been found!

================================================================================
                                       INPUT FILE
================================================================================
NAME = AT-v/e/frag_30_c00001.com
|  1> %pal nprocs 6 end
|  2> %maxcore 1000
|  3> ! b3lyp TIGHTSCF nopop D3BJ
|  4> ! cc-pvdz def2/J RIJCOSX
|  5> ! Opt
|  6> 
|  7> %geom
|  8> maxiter 60
|  9> TolE 1e-4
| 10> TolRMSG 2e-3
| 11> TolMaxG 3e-3
| 12> TolRMSD 2e-2
| 13> TolMaxD 3e-2
| 14> end
| 15> 
| 16> *xyz 0 1
| 17> C 3.0947 -0.5003 -0.0082
| 18> C 1.612 -0.6253 -0.1136
| 19> N 1.0547 -1.8468 -0.3273
| 20> N 0.789 0.3719 -0.0179
| 21> C 3.7599 0.6423 0.1999
| 22> N -3.9077 1.5637 -0.093
| 23> C -2.5518 1.5713 -0.1311
| 24> O -1.9525 2.6348 -0.248
| 25> N -1.9165 0.3679 -0.0319
| 26> C -2.4282 -0.8967 0.1027
| 27> O -1.7399 -1.9095 0.1823
| 28> H 3.6489 -1.4252 -0.1388
| 29> H 1.5208 -2.6468 0.0814
| 30> H 0.0457 -1.8761 -0.1534
| 31> H 1.3008 1.249 0.1179
| 32> H 4.8444 0.6341 0.2455
| 33> H 3.279 1.6044 0.3294
| 34> H -4.3471 0.9942 0.6167
| 35> H -4.282 2.507 -0.116
| 36> H -0.8925 0.42 -0.0721
| 37> H -3.5272 -0.9423 0.1217
| 38> *
| 39> 
| 40> 
| 41>                          ****END OF INPUT****
================================================================================

                       *****************************
                       * Geometry Optimization Run *
                       *****************************

Geometry optimization settings:
Update method            Update   .... BFGS
Choice of coordinates    CoordSys .... Redundant Internals
Initial Hessian          InHess   .... Almoef's Model

Convergence Tolerances:
Energy Change            TolE     ....  1.0000e-04 Eh
Max. Gradient            TolMAXG  ....  3.0000e-03 Eh/bohr
RMS Gradient             TolRMSG  ....  2.0000e-03 Eh/bohr
Max. Displacement        TolMAXD  ....  3.0000e-02 bohr
RMS Displacement         TolRMSD  ....  2.0000e-02 bohr

------------------------------------------------------------------------------
                        ORCA OPTIMIZATION COORDINATE SETUP
------------------------------------------------------------------------------

The optimization will be done in new redundant internal coordinates
Making redundant internal coordinates   ...  (new redundants) done
Evaluating the initial hessian          ...  (Almloef) done
Evaluating the coordinates              ...  done
Calculating the B-matrix                .... done
Calculating the G-matrix                .... done
Diagonalizing the G-matrix              .... done
Small eigenvalue found = 1.322e-02
The first mode is                       ....   31
The number of degrees of freedom        ....   57

    -----------------------------------------------------------------
                    Redundant Internal Coordinates


    -----------------------------------------------------------------
         Definition                    Initial Value    Approx d2E/dq
    -----------------------------------------------------------------
      1. B(C   1,C   0)                  1.4917         0.430033   
      2. B(N   2,C   1)                  1.3595         0.625883   
      3. B(N   3,C   1)                  1.2965         0.788968   
      4. B(C   4,C   0)                  1.3384         0.755184   
      5. B(C   6,N   5)                  1.3565         0.632983   
      6. B(O   7,C   6)                  1.2263         1.020982   
      7. B(N   8,C   6)                  1.3644         0.614753   
      8. B(C   9,N   8)                  1.3708         0.600433   
      9. B(O  10,C   9)                  1.2271         1.017931   
     10. B(H  11,C   0)                  1.0861         0.365283   
     11. B(H  12,N   2)                  1.0121         0.429431   
     12. B(H  13,N   2)                  1.0243         0.410571   
     13. B(H  13,O  10)                  1.8172         0.022304   
     14. B(H  14,N   3)                  1.0245         0.410199   
     15. B(H  15,C   4)                  1.0855         0.366117   
     16. B(H  16,C   4)                  1.0834         0.368990   
     17. B(H  17,N   5)                  1.0105         0.431940   
     18. B(H  18,N   5)                  1.0151         0.424664   
     19. B(H  19,N   3)                  1.6831         0.036506   
     20. B(H  19,N   8)                  1.0261         0.407839   
     21. B(H  20,C   9)                  1.1001         0.346971   
     22. A(C   4,C   0,H  11)          119.4774         0.365852   
     23. A(C   1,C   0,C   4)          125.2075         0.421145   
     24. A(C   1,C   0,H  11)          115.2983         0.332723   
     25. A(C   0,C   1,N   2)          119.5939         0.404704   
     26. A(C   0,C   1,N   3)          124.1454         0.421691   
     27. A(N   2,C   1,N   3)          116.2604         0.448206   
     28. A(C   1,N   2,H  13)          113.7543         0.356053   
     29. A(C   1,N   2,H  12)          117.2546         0.358781   
     30. A(H  12,N   2,H  13)          111.2534         0.300362   
     31. A(C   1,N   3,H  14)          110.5573         0.370365   
     32. A(C   1,N   3,H  19)          130.8291         0.251732   
     33. A(H  14,N   3,H  19)          118.6123         0.209959   
     34. A(H  15,C   4,H  16)          116.4348         0.292719   
     35. A(C   0,C   4,H  16)          123.7873         0.366485   
     36. A(C   0,C   4,H  15)          119.7779         0.365995   
     37. A(H  17,N   5,H  18)          112.2902         0.302263   
     38. A(C   6,N   5,H  18)          111.2683         0.358788   
     39. A(C   6,N   5,H  17)          117.2290         0.359828   
     40. A(O   7,C   6,N   8)          122.9749         0.468246   
     41. A(N   5,C   6,N   8)          117.2870         0.429351   
     42. A(N   5,C   6,O   7)          119.7380         0.470762   
     43. A(C   9,N   8,H  19)          115.0365         0.353156   
     44. A(C   6,N   8,H  19)          114.6474         0.354569   
     45. A(C   6,N   8,C   9)          130.3141         0.425308   
     46. A(O  10,C   9,H  20)          121.6685         0.379370   
     47. A(N   8,C   9,H  20)          114.3831         0.346669   
     48. A(N   8,C   9,O  10)          123.9437         0.465972   
     49. A(C   9,O  10,H  13)          121.6008         0.243200   
     50. L(N   2,H  13,O  10,C   1, 2) 181.1061         0.197216   
     51. L(N   2,H  13,O  10,C   1, 1) 179.2137         0.197216   
     52. A(N   3,H  19,N   8)          173.8814         0.209801   
     53. D(N   3,C   1,C   0,H  11)   -178.2978         0.012635   
     54. D(N   2,C   1,C   0,C   4)    179.9882         0.012635   
     55. D(N   3,C   1,C   0,C   4)      0.1929         0.012635   
     56. D(N   2,C   1,C   0,H  11)      1.4975         0.012635   
     57. D(H  13,N   2,C   1,C   0)    165.5210         0.031768   
     58. D(H  13,N   2,C   1,N   3)    -14.6679         0.031768   
     59. D(H  12,N   2,C   1,C   0)     33.2826         0.031768   
     60. D(H  12,N   2,C   1,N   3)   -146.9063         0.031768   
     61. D(H  19,N   3,C   1,N   2)      1.8827         0.052891   
     62. D(H  19,N   3,C   1,C   0)   -178.3158         0.052891   
     63. D(H  14,N   3,C   1,N   2)   -178.5531         0.052891   
     64. D(H  14,N   3,C   1,C   0)      1.2484         0.052891   
     65. D(H  16,C   4,C   0,C   1)      0.9607         0.040726   
     66. D(H  15,C   4,C   0,H  11)     -0.5616         0.040726   
     67. D(H  15,C   4,C   0,C   1)   -178.9941         0.040726   
     68. D(H  16,C   4,C   0,H  11)    179.3933         0.040726   
     69. D(N   8,C   6,N   5,H  18)    176.4925         0.032552   
     70. D(N   8,C   6,N   5,H  17)     45.3420         0.032552   
     71. D(O   7,C   6,N   5,H  18)     -3.3601         0.032552   
     72. D(O   7,C   6,N   5,H  17)   -134.5106         0.032552   
     73. D(H  19,N   8,C   6,O   7)     -0.5762         0.030562   
     74. D(H  19,N   8,C   6,N   5)    179.5764         0.030562   
     75. D(C   9,N   8,C   6,O   7)    179.9643         0.030562   
     76. D(C   9,N   8,C   6,N   5)      0.1168         0.030562   
     77. D(H  20,C   9,N   8,H  19)   -178.6802         0.029053   
     78. D(H  20,C   9,N   8,C   6)      0.7777         0.029053   
     79. D(O  10,C   9,N   8,H  19)      0.5458         0.029053   
     80. D(O  10,C   9,N   8,C   6)   -179.9963         0.029053   
     81. D(H  13,O  10,C   9,N   8)    -10.6197         0.085349   
     82. D(C   9,O  10,N   2,H  12)    160.1137         0.001500   
     83. D(C   9,O  10,N   2,C   1)     25.4939         0.001500   
     84. D(H  13,O  10,C   9,H  20)    168.5520         0.085349   
     85. D(N   3,H  19,N   8,C   9)    -36.7493         0.186261   
     86. D(N   3,H  19,N   8,C   6)    143.7055         0.186261   
     87. D(N   8,H  19,N   3,H  14)   -130.3918         0.002242   
     88. D(N   8,H  19,N   3,C   1)     49.1433         0.002242   
    -----------------------------------------------------------------

Number of atoms                         .... 21
Number of degrees of freedom            .... 88

         *************************************************************
         *                GEOMETRY OPTIMIZATION CYCLE   1            *
         *************************************************************
---------------------------------
CARTESIAN COORDINATES (ANGSTROEM)
---------------------------------
  C      3.094700   -0.500300   -0.008200
  C      1.612000   -0.625300   -0.113600
  N      1.054700   -1.846800   -0.327300
  N      0.789000    0.371900   -0.017900
  C      3.759900    0.642300    0.199900
  N     -3.907700    1.563700   -0.093000
  C     -2.551800    1.571300   -0.131100
  O     -1.952500    2.634800   -0.248000
  N     -1.916500    0.367900   -0.031900
  C     -2.428200   -0.896700    0.102700
  O     -1.739900   -1.909500    0.182300
  H      3.648900   -1.425200   -0.138800
  H      1.520800   -2.646800    0.081400
  H      0.045700   -1.876100   -0.153400
  H      1.300800    1.249000    0.117900
  H      4.844400    0.634100    0.245500
  H      3.279000    1.604400    0.329400
  H     -4.347100    0.994200    0.616700
  H     -4.282000    2.507000   -0.116000
  H     -0.892500    0.420000   -0.072100
  H     -3.527200   -0.942300    0.121700

----------------------------
CARTESIAN COORDINATES (A.U.)
----------------------------
  NO LB      ZA    FRAG     MASS         X           Y           Z
   0 C     6.0000    0    12.011    5.848135   -0.945430   -0.015496
   1 C     6.0000    0    12.011    3.046239   -1.181646   -0.214673
   2 N     7.0000    0    14.007    1.993094   -3.489946   -0.618507
   3 N     7.0000    0    14.007    1.490994    0.702789   -0.033826
   4 C     6.0000    0    12.011    7.105181    1.213771    0.377756
   5 N     7.0000    0    14.007   -7.384483    2.954965   -0.175745
   6 C     6.0000    0    12.011   -4.822203    2.969327   -0.247743
   7 O     8.0000    0    15.999   -3.689690    4.979050   -0.468652
   8 N     7.0000    0    14.007   -3.621660    0.695230   -0.060282
   9 C     6.0000    0    12.011   -4.588633   -1.694517    0.194075
  10 O     8.0000    0    15.999   -3.287935   -3.608432    0.344497
  11 H     1.0000    0     1.008    6.895422   -2.693238   -0.262294
  12 H     1.0000    0     1.008    2.873896   -5.001727    0.153824
  13 H     1.0000    0     1.008    0.086360   -3.545315   -0.289884
  14 H     1.0000    0     1.008    2.458156    2.360268    0.222799
  15 H     1.0000    0     1.008    9.154589    1.198275    0.463928
  16 H     1.0000    0     1.008    6.196412    3.031877    0.622476
  17 H     1.0000    0     1.008   -8.214828    1.878766    1.165394
  18 H     1.0000    0     1.008   -8.091807    4.737543   -0.219208
  19 H     1.0000    0     1.008   -1.686581    0.793685   -0.136249
  20 H     1.0000    0     1.008   -6.665442   -1.780689    0.229980

--------------------------------
INTERNAL COORDINATES (ANGSTROEM)
--------------------------------
 C      0   0   0     0.000000000000     0.00000000     0.00000000
 C      1   0   0     1.491688120889     0.00000000     0.00000000
 N      2   1   0     1.359526840485   119.59385918     0.00000000
 N      2   1   3     1.296493474723   124.14544039   180.20469432
 C      1   2   3     1.338406294815   125.20746126   179.98822212
 N      4   2   1     4.846134350181   143.43936581   180.57298414
 C      6   4   2     1.356456479213    14.77079866   198.05511394
 O      7   6   4     1.226319024561   119.73797259   184.25453606
 N      7   6   8     1.364411334606   117.28695568   179.85262027
 C      9   7   6     1.370827199176   130.31411371     0.11680605
 O     10   9   7     1.227133607233   123.94374439   180.00369260
 H      1   2   3     1.086109575503   115.29829528     1.49748165
 H      3   2   1     1.012069612230   117.25459822    33.28260885
 H      3   2   1     1.024295221115   113.75429560   165.52102857
 H      4   2   1     1.024541502332   110.55731298     1.24837767
 H      5   1   2     1.085489221503   119.77786711   181.00585340
 H      5   1   2     1.083361190924   123.78733495     0.96071278
 H      6   4   2     1.010483399171   105.78008133    55.57652474
 H      6   4   2     1.015108063213   125.89074329   189.28760987
 H      9   7   6     1.026112298922   114.64739386   179.57638985
 H     10   9   7     1.100109703621   114.38310768     0.77767468

---------------------------
INTERNAL COORDINATES (A.U.)
---------------------------
 C      0   0   0     0.000000000000     0.00000000     0.00000000
 C      1   0   0     2.818882025703     0.00000000     0.00000000
 N      2   1   0     2.569133400232   119.59385918     0.00000000
 N      2   1   3     2.450017601643   124.14544039   180.20469432
 C      1   2   3     2.529221353116   125.20746126   179.98822212
 N      4   2   1     9.157866730030   143.43936581   180.57298414
 C      6   4   2     2.563331258296    14.77079866   198.05511394
 O      7   6   4     2.317407109238   119.73797259   184.25453606
 N      7   6   8     2.578363756422   117.28695568   179.85262027
 C      9   7   6     2.590487983372   130.31411371     0.11680605
 O     10   9   7     2.318946447401   123.94374439   180.00369260
 H      1   2   3     2.052449649131   115.29829528     1.49748165
 H      3   2   1     1.912534395579   117.25459822    33.28260885
 H      3   2   1     1.935637448193   113.75429560   165.52102857
 H      4   2   1     1.936102852243   110.55731298     1.24837767
 H      5   1   2     2.051277349965   119.77786711   181.00585340
 H      5   1   2     2.047255954965   123.78733495     0.96071278
 H      6   4   2     1.909536887307   105.78008133    55.57652474
 H      6   4   2     1.918276235808   125.89074329   189.28760987
 H      9   7   6     1.939071227612   114.64739386   179.57638985
 H     10   9   7     2.078906057112   114.38310768     0.77767468

---------------------
BASIS SET INFORMATION
---------------------
There are 4 groups of distinct atoms

 Group   1 Type C   : 17s4p1d contracted to 3s2p1d pattern {881/31/1}
 Group   2 Type N   : 17s4p1d contracted to 3s2p1d pattern {881/31/1}
 Group   3 Type O   : 17s4p1d contracted to 3s2p1d pattern {881/31/1}
 Group   4 Type H   : 4s1p contracted to 2s1p pattern {31/1}

Atom   0C    basis set group =>   1
Atom   1C    basis set group =>   1
Atom   2N    basis set group =>   2
Atom   3N    basis set group =>   2
Atom   4C    basis set group =>   1
Atom   5N    basis set group =>   2
Atom   6C    basis set group =>   1
Atom   7O    basis set group =>   3
Atom   8N    basis set group =>   2
Atom   9C    basis set group =>   1
Atom  10O    basis set group =>   3
Atom  11H    basis set group =>   4
Atom  12H    basis set group =>   4
Atom  13H    basis set group =>   4
Atom  14H    basis set group =>   4
Atom  15H    basis set group =>   4
Atom  16H    basis set group =>   4
Atom  17H    basis set group =>   4
Atom  18H    basis set group =>   4
Atom  19H    basis set group =>   4
Atom  20H    basis set group =>   4
-------------------------------
AUXILIARY BASIS SET INFORMATION
-------------------------------
There are 4 groups of distinct atoms

 Group   1 Type C   : 12s5p4d2f1g contracted to 6s4p3d1f1g pattern {711111/2111/211/2/1}
 Group   2 Type N   : 12s5p4d2f1g contracted to 6s4p3d1f1g pattern {711111/2111/211/2/1}
 Group   3 Type O   : 12s5p4d2f1g contracted to 6s4p3d1f1g pattern {711111/2111/211/2/1}
 Group   4 Type H   : 5s2p1d contracted to 3s1p1d pattern {311/2/1}

Atom   0C    basis set group =>   1
Atom   1C    basis set group =>   1
Atom   2N    basis set group =>   2
Atom   3N    basis set group =>   2
Atom   4C    basis set group =>   1
Atom   5N    basis set group =>   2
Atom   6C    basis set group =>   1
Atom   7O    basis set group =>   3
Atom   8N    basis set group =>   2
Atom   9C    basis set group =>   1
Atom  10O    basis set group =>   3
Atom  11H    basis set group =>   4
Atom  12H    basis set group =>   4
Atom  13H    basis set group =>   4
Atom  14H    basis set group =>   4
Atom  15H    basis set group =>   4
Atom  16H    basis set group =>   4
Atom  17H    basis set group =>   4
Atom  18H    basis set group =>   4
Atom  19H    basis set group =>   4
Atom  20H    basis set group =>   4


           ************************************************************
           *        Program running with 6 parallel MPI-processes     *
           *              working on a common directory               *
           ************************************************************
------------------------------------------------------------------------------
                           ORCA GTO INTEGRAL CALCULATION
                           -- RI-GTO INTEGRALS CHOSEN --
------------------------------------------------------------------------------

                         BASIS SET STATISTICS AND STARTUP INFO

Gaussian basis set:
 # of primitive gaussian shells          ...  292
 # of primitive gaussian functions       ...  444
 # of contracted shells                  ...   96
 # of contracted basis functions         ...  204
 Highest angular momentum                ...    2
 Maximum contraction depth               ...    8
Auxiliary gaussian basis set:
 # of primitive gaussian shells          ...  344
 # of primitive gaussian functions       ...  930
 # of contracted shells                  ...  215
 # of contracted aux-basis functions     ...  649
 Highest angular momentum                ...    4
 Maximum contraction depth               ...    7
Ratio of auxiliary to basis functions    ...  3.18
Integral package used                  ... LIBINT
 One Electron integrals                  ... done
 Ordering auxiliary basis shells         ... done
 Integral threshhold             Thresh  ...  2.500e-11
 Primitive cut-off               TCut    ...  2.500e-12
 Pre-screening matrix                    ... done
 Shell pair data                         ... 
 Ordering of the shell pairs             ... done (   0.001 sec) 3960 of 4656 pairs
 Determination of significant pairs      ... done (   0.000 sec)
 Creation of shell pair data             ... done (   0.002 sec)
 Storage of shell pair data              ... done (   0.003 sec)
 Shell pair data done in (   0.006 sec)
 Computing two index integrals           ... done
 Cholesky decomposition of the V-matrix  ... done


Timings:
 Total evaluation time                   ...   0.421 sec (  0.007 min)
 One electron matrix time                ...   0.063 sec (  0.001 min) = 14.9%
 Schwartz matrix evaluation time         ...   0.252 sec (  0.004 min) = 59.8%
 Two index repulsion integral time       ...   0.066 sec (  0.001 min) = 15.7%
 Cholesky decomposition of V             ...   0.015 sec (  0.000 min) =  3.5%
 Three index repulsion integral time     ...   0.000 sec (  0.000 min) =  0.0%



           ************************************************************
           *        Program running with 6 parallel MPI-processes     *
           *              working on a common directory               *
           ************************************************************
-------------------------------------------------------------------------------
                                 ORCA SCF
-------------------------------------------------------------------------------

------------
SCF SETTINGS
------------
Hamiltonian:
 Density Functional     Method          .... DFT(GTOs)
 Exchange Functional    Exchange        .... B88
   X-Alpha parameter    XAlpha          ....  0.666667
   Becke's b parameter  XBeta           ....  0.004200
 Correlation Functional Correlation     .... LYP
 LDA part of GGA corr.  LDAOpt          .... VWN-5
 Gradients option       PostSCFGGA      .... off
 Hybrid DFT is turned on
   Fraction HF Exchange ScalHFX         ....  0.200000
   Scaling of DF-GGA-X  ScalDFX         ....  0.720000
   Scaling of DF-GGA-C  ScalDFC         ....  0.810000
   Scaling of DF-LDA-C  ScalLDAC        ....  1.000000
   Perturbative correction              ....  0.000000
   NL short-range parameter             ....  4.800000
 RI-approximation to the Coulomb term is turned on
   Number of auxiliary basis functions  .... 649
   RIJ-COSX (HFX calculated with COS-X)).... on


General Settings:
 Integral files         IntName         .... AT-v/e/frag_30_c00001
 Hartree-Fock type      HFTyp           .... RHF
 Total Charge           Charge          ....    0
 Multiplicity           Mult            ....    1
 Number of Electrons    NEL             ....   84
 Basis Dimension        Dim             ....  204
 Nuclear Repulsion      ENuc            ....    592.3413977502 Eh

Convergence Acceleration:
 DIIS                   CNVDIIS         .... on
   Start iteration      DIISMaxIt       ....    12
   Startup error        DIISStart       ....  0.200000
   # of expansion vecs  DIISMaxEq       ....     5
   Bias factor          DIISBfac        ....   1.050
   Max. coefficient     DIISMaxC        ....  10.000
 Newton-Raphson         CNVNR           .... off
 SOSCF                  CNVSOSCF        .... on
   Start iteration      SOSCFMaxIt      ....   150
   Startup grad/error   SOSCFStart      ....  0.003300
 Level Shifting         CNVShift        .... on
   Level shift para.    LevelShift      ....    0.2500
   Turn off err/grad.   ShiftErr        ....    0.0010
 Zerner damping         CNVZerner       .... off
 Static damping         CNVDamp         .... on
   Fraction old density DampFac         ....    0.7000
   Max. Damping (<1)    DampMax         ....    0.9800
   Min. Damping (>=0)   DampMin         ....    0.0000
   Turn off err/grad.   DampErr         ....    0.1000
 Fernandez-Rico         CNVRico         .... off

SCF Procedure:
 Maximum # iterations   MaxIter         ....   125
 SCF integral mode      SCFMode         .... Direct
   Integral package                     .... LIBINT
 Reset frequeny         DirectResetFreq ....    20
 Integral Threshold     Thresh          ....  2.500e-11 Eh
 Primitive CutOff       TCut            ....  2.500e-12 Eh

Convergence Tolerance:
 Convergence Check Mode ConvCheckMode   .... Total+1el-Energy
 Convergence forced     ConvForced      .... 0
 Energy Change          TolE            ....  1.000e-08 Eh
 1-El. energy change                    ....  1.000e-05 Eh
 Orbital Gradient       TolG            ....  1.000e-05
 Orbital Rotation angle TolX            ....  1.000e-05
 DIIS Error             TolErr          ....  5.000e-07


Diagonalization of the overlap matrix:
Smallest eigenvalue                        ... 1.925e-03
Time for diagonalization                   ...    0.010 sec
Threshold for overlap eigenvalues          ... 1.000e-08
Number of eigenvalues below threshold      ... 0
Time for construction of square roots      ...    0.004 sec
Total time needed                          ...    0.015 sec

-------------------
DFT GRID GENERATION
-------------------

General Integration Accuracy     IntAcc      ...  4.340
Radial Grid Type                 RadialGrid  ... Gauss-Chebyshev
Angular Grid (max. acc.)         AngularGrid ... Lebedev-110
Angular grid pruning method      GridPruning ... 3 (G Style)
Weight generation scheme         WeightScheme... Becke
Basis function cutoff            BFCut       ...    1.0000e-11
Integration weight cutoff        WCut        ...    1.0000e-14
Grids for H and He will be reduced by one unit

# of grid points (after initial pruning)     ...  26460 (   0.0 sec)
# of grid points (after weights+screening)   ...  24553 (   0.0 sec)
nearest neighbour list constructed           ...    0.0 sec
Grid point re-assignment to atoms done       ...    0.0 sec
Grid point division into batches done        ...    0.0 sec
Reduced shell lists constructed in    0.1 sec

Total number of grid points                  ...    24553
Total number of batches                      ...      394
Average number of points per batch           ...       62
Average number of grid points per atom       ...     1169
Average number of shells per batch           ...    67.63 (70.44%)
Average number of basis functions per batch  ...   138.64 (67.96%)
Average number of large shells per batch     ...    49.73 (73.54%)
Average number of large basis fcns per batch ...   101.82 (73.44%)
Maximum spatial batch extension              ...   6.16,  9.78, 16.86 au
Average spatial batch extension              ...   0.31,  0.33,  0.51 au

Time for grid setup =    0.124 sec

------------------------------
INITIAL GUESS: MODEL POTENTIAL
------------------------------
Loading Hartree-Fock densities                     ... done
Calculating cut-offs                               ... done
Setting up the integral package                    ... done
Initializing the effective Hamiltonian             ... done
Starting the Coulomb interaction                   ... done (   0.0 sec)
Reading the grid                                   ... done
Mapping shells                                     ... done
Starting the XC term evaluation                    ... done (   0.1 sec)
  promolecular density results
     # of electrons  =     84.007417207
     EX              =    -71.376015003
     EC              =     -2.879276687
     EX+EC           =    -74.255291690
Transforming the Hamiltonian                       ... done (   0.0 sec)
Diagonalizing the Hamiltonian                      ... done (   0.0 sec)
Back transforming the eigenvectors                 ... done (   0.0 sec)
Now organizing SCF variables                       ... done
                      ------------------
                      INITIAL GUESS DONE (   0.4 sec)
                      ------------------
--------------------
COSX GRID GENERATION
--------------------

General Integration Accuracy     IntAcc      ...  3.340
Radial Grid Type                 RadialGrid  ... Gauss-Chebyshev
Angular Grid (max. acc.)         AngularGrid ... Lebedev-50
Angular grid pruning method      GridPruning ... 3 (G Style)
Weight generation scheme         WeightScheme... Becke
Basis function cutoff            BFCut       ...    1.0000e-11
Integration weight cutoff        WCut        ...    1.0000e-14
Grids for H and He will be reduced by one unit

# of grid points (after initial pruning)     ...   9524 (   0.0 sec)
# of grid points (after weights+screening)   ...   8899 (   0.0 sec)
nearest neighbour list constructed           ...    0.0 sec
Grid point re-assignment to atoms done       ...    0.0 sec
Grid point division into batches done        ...    0.0 sec
Reduced shell lists constructed in    0.0 sec

Total number of grid points                  ...     8899
Total number of batches                      ...      149
Average number of points per batch           ...       59
Average number of grid points per atom       ...      424
Average number of shells per batch           ...    68.85 (71.71%)
Average number of basis functions per batch  ...   141.46 (69.34%)
Average number of large shells per batch     ...    50.77 (73.74%)
Average number of large basis fcns per batch ...   103.85 (73.41%)
Maximum spatial batch extension              ...   3.83,  8.47, 17.50 au
Average spatial batch extension              ...   0.39,  0.45,  0.78 au

Overlap Fitting                  UseSFitting ... on
Constructing numerical overlap ... done (      0.0 sec)
Inverting numerical overlap    ... done (      0.0 sec)
Obtaining analytic overlap     ... done (      0.0 sec)
Final contraction and storage  ... done (      0.0 sec)


General Integration Accuracy     IntAcc      ...  3.670
Radial Grid Type                 RadialGrid  ... Gauss-Chebyshev
Angular Grid (max. acc.)         AngularGrid ... Lebedev-50
Angular grid pruning method      GridPruning ... 3 (G Style)
Weight generation scheme         WeightScheme... Becke
Basis function cutoff            BFCut       ...    1.0000e-11
Integration weight cutoff        WCut        ...    1.0000e-14
Grids for H and He will be reduced by one unit

# of grid points (after initial pruning)     ...  12174 (   0.0 sec)
# of grid points (after weights+screening)   ...  11350 (   0.0 sec)
nearest neighbour list constructed           ...    0.0 sec
Grid point re-assignment to atoms done       ...    0.0 sec
Grid point division into batches done        ...    0.0 sec
Reduced shell lists constructed in    0.0 sec

Total number of grid points                  ...    11350
Total number of batches                      ...      189
Average number of points per batch           ...       60
Average number of grid points per atom       ...      540
Average number of shells per batch           ...    70.52 (73.45%)
Average number of basis functions per batch  ...   145.18 (71.17%)
Average number of large shells per batch     ...    51.39 (72.88%)
Average number of large basis fcns per batch ...   105.27 (72.51%)
Maximum spatial batch extension              ...   4.62,  5.70, 19.02 au
Average spatial batch extension              ...   0.39,  0.41,  0.74 au

Overlap Fitting                  UseSFitting ... on
Constructing numerical overlap ... done (      0.0 sec)
Inverting numerical overlap    ... done (      0.0 sec)
Obtaining analytic overlap     ... done (      0.0 sec)
Final contraction and storage  ... done (      0.0 sec)


General Integration Accuracy     IntAcc      ...  4.010
Radial Grid Type                 RadialGrid  ... Gauss-Chebyshev
Angular Grid (max. acc.)         AngularGrid ... Lebedev-110
Angular grid pruning method      GridPruning ... 3 (G Style)
Weight generation scheme         WeightScheme... Becke
Basis function cutoff            BFCut       ...    1.0000e-11
Integration weight cutoff        WCut        ...    1.0000e-14
Grids for H and He will be reduced by one unit

# of grid points (after initial pruning)     ...  22736 (   0.0 sec)
# of grid points (after weights+screening)   ...  21131 (   0.0 sec)
nearest neighbour list constructed           ...    0.0 sec
Grid point re-assignment to atoms done       ...    0.0 sec
Grid point division into batches done        ...    0.0 sec
Reduced shell lists constructed in    0.1 sec

Total number of grid points                  ...    21131
Total number of batches                      ...      341
Average number of points per batch           ...       61
Average number of grid points per atom       ...     1006
Average number of shells per batch           ...    68.16 (70.99%)
Average number of basis functions per batch  ...   139.98 (68.62%)
Average number of large shells per batch     ...    49.78 (73.03%)
Average number of large basis fcns per batch ...   101.60 (72.58%)
Maximum spatial batch extension              ...   6.49,  9.49, 15.63 au
Average spatial batch extension              ...   0.33,  0.35,  0.55 au

Overlap Fitting                  UseSFitting ... on
Constructing numerical overlap ... done (      0.0 sec)
Inverting numerical overlap    ... done (      0.0 sec)
Obtaining analytic overlap     ... done (      0.0 sec)
Final contraction and storage  ... done (      0.0 sec)

Time for X-Grid setup             =    0.401 sec
--------------
SCF ITERATIONS
--------------
ITER       Energy         Delta-E        Max-DP      RMS-DP      [F,P]     Damp
               ***  Starting incremental Fock matrix formation  ***
  0   -565.2632434464   0.000000000000 0.10704049  0.00259338  0.2894129 0.7000
  1   -565.4970989254  -0.233855478996 0.06176535  0.00163828  0.1181456 0.7000
                               ***Turning on DIIS***
  2   -565.5780523328  -0.080953407395 0.08016602  0.00223457  0.0481640 0.0000
  3   -565.7136722437  -0.135619910846 0.04185497  0.00115342  0.0644202 0.0000
  4   -565.7414601410  -0.027787897345 0.01277768  0.00033436  0.0185059 0.0000
  5   -565.7438425170  -0.002382376023 0.00340025  0.00010536  0.0042650 0.0000
                      *** Initiating the SOSCF procedure ***
                           *** Shutting down DIIS ***
                      *** Re-Reading the Fockian *** 
                      *** Removing any level shift *** 
ITER      Energy       Delta-E        Grad      Rot      Max-DP    RMS-DP
  6   -565.74394415  -0.0001016282  0.000412  0.000412  0.001265  0.000039
               *** Restarting incremental Fock matrix formation ***
  7   -565.74397707  -0.0000329294  0.000219  0.000733  0.000906  0.000026
  8   -565.74397682   0.0000002512  0.000266  0.000574  0.000710  0.000013
  9   -565.74397879  -0.0000019691  0.000074  0.000232  0.000257  0.000009
 10   -565.74397883  -0.0000000352  0.000057  0.000098  0.000134  0.000003
 11   -565.74397898  -0.0000001546  0.000012  0.000037  0.000061  0.000002
 12   -565.74397899  -0.0000000042  0.000017  0.000027  0.000042  0.000001
 13   -565.74397899  -0.0000000042  0.000005  0.000012  0.000018  0.000001
 14   -565.74397899   0.0000000024  0.000005  0.000005  0.000011  0.000000
                  ***Gradient check signals convergence***
              ***Rediagonalizing the Fockian in SOSCF/NRSCF***

               *****************************************************
               *                     SUCCESS                       *
               *           SCF CONVERGED AFTER  15 CYCLES          *
               *****************************************************

Setting up the final grid:

General Integration Accuracy     IntAcc      ...  4.670
Radial Grid Type                 RadialGrid  ... Gauss-Chebyshev
Angular Grid (max. acc.)         AngularGrid ... Lebedev-302
Angular grid pruning method      GridPruning ... 3 (G Style)
Weight generation scheme         WeightScheme... Becke
Basis function cutoff            BFCut       ...    1.0000e-11
Integration weight cutoff        WCut        ...    1.0000e-14
Grids for H and He will be reduced by one unit

# of grid points (after initial pruning)     ... 102272 (   0.0 sec)
# of grid points (after weights+screening)   ...  93418 (   0.1 sec)
nearest neighbour list constructed           ...    0.0 sec
Grid point re-assignment to atoms done       ...    0.0 sec
Grid point division into batches done        ...    0.3 sec
Reduced shell lists constructed in    0.5 sec

Total number of grid points                  ...    93418
Total number of batches                      ...     1471
Average number of points per batch           ...       63
Average number of grid points per atom       ...     4448
Average number of shells per batch           ...    64.60 (67.29%)
Average number of basis functions per batch  ...   132.08 (64.74%)
Average number of large shells per batch     ...    46.70 (72.29%)
Average number of large basis fcns per batch ...    95.50 (72.30%)
Maximum spatial batch extension              ...   8.24, 14.28, 18.48 au
Average spatial batch extension              ...   0.23,  0.24,  0.31 au

Final grid set up in    0.8 sec
Final integration                            ... done (   0.3 sec)
Change in XC energy                          ...     0.000145116
Integrated number of electrons               ...    84.000056221
Previous integrated no of electrons          ...    84.006517074
Old exchange energy                            =    -14.486790188 Eh
New exchange energy                            =    -14.486355716 Eh
Exchange energy change after final integration =      0.000434472 Eh
Total energy after final integration           =   -565.743399407 Eh
Final COS-X integration done in                =     2.827 sec

----------------
TOTAL SCF ENERGY
----------------

Total Energy       :         -565.74339941 Eh          -15394.66055 eV

Components:
Nuclear Repulsion  :          592.34139775 Eh           16118.42888 eV
Electronic Energy  :        -1158.08479716 Eh          -31513.08943 eV
One Electron Energy:        -1945.40422804 Eh          -52937.14032 eV
Two Electron Energy:          787.31943089 Eh           21424.05089 eV

Virial components:
Potential Energy   :        -1128.41385657 Eh          -30705.70209 eV
Kinetic Energy     :          562.67045716 Eh           15311.04154 eV
Virial Ratio       :            2.00546135


DFT components:
N(Alpha)           :       42.000028110425 electrons
N(Beta)            :       42.000028110425 electrons
N(Total)           :       84.000056220851 electrons
E(X)               :      -57.618229864758 Eh       
E(C)               :       -3.398886335682 Eh       
E(XC)              :      -61.017116200439 Eh       

---------------
SCF CONVERGENCE
---------------

  Last Energy change         ...   -6.6216e-09  Tolerance :   1.0000e-08
  Last MAX-Density change    ...    4.1185e-13  Tolerance :   1.0000e-07
  Last RMS-Density change    ...    2.0366e-15  Tolerance :   5.0000e-09
  Last Orbital Gradient      ...    1.2566e-06  Tolerance :   1.0000e-05
  Last Orbital Rotation      ...    4.6043e-06  Tolerance :   1.0000e-05

             **** THE GBW FILE WAS UPDATED (AT-v/e/frag_30_c00001.gbw) ****
             **** DENSITY FILE WAS UPDATED (AT-v/e/frag_30_c00001.scfp.tmp) ****
             **** ENERGY FILE WAS UPDATED (AT-v/e/frag_30_c00001.en.tmp) ****
----------------
ORBITAL ENERGIES
----------------

  NO   OCC          E(Eh)            E(eV) 
   0   2.0000     -19.132415      -520.6195 
   1   2.0000     -19.096191      -519.6338 
   2   2.0000     -14.347307      -390.4101 
   3   2.0000     -14.343790      -390.3144 
   4   2.0000     -14.323539      -389.7633 
   5   2.0000     -14.288277      -388.8038 
   6   2.0000     -10.307828      -280.4903 
   7   2.0000     -10.302978      -280.3583 
   8   2.0000     -10.258989      -279.1613 
   9   2.0000     -10.209451      -277.8133 
  10   2.0000     -10.206700      -277.7384 
  11   2.0000      -1.057133       -28.7661 
  12   2.0000      -1.038580       -28.2612 
  13   2.0000      -0.945050       -25.7161 
  14   2.0000      -0.929462       -25.2919 
  15   2.0000      -0.894132       -24.3306 
  16   2.0000      -0.840683       -22.8761 
  17   2.0000      -0.781500       -21.2657 
  18   2.0000      -0.662104       -18.0168 
  19   2.0000      -0.641839       -17.4653 
  20   2.0000      -0.611752       -16.6466 
  21   2.0000      -0.562939       -15.3184 
  22   2.0000      -0.556677       -15.1479 
  23   2.0000      -0.521630       -14.1943 
  24   2.0000      -0.509224       -13.8567 
  25   2.0000      -0.492131       -13.3916 
  26   2.0000      -0.465417       -12.6646 
  27   2.0000      -0.449038       -12.2189 
  28   2.0000      -0.443902       -12.0792 
  29   2.0000      -0.430298       -11.7090 
  30   2.0000      -0.421120       -11.4593 
  31   2.0000      -0.408728       -11.1221 
  32   2.0000      -0.388167       -10.5626 
  33   2.0000      -0.385050       -10.4777 
  34   2.0000      -0.380132       -10.3439 
  35   2.0000      -0.296233        -8.0609 
  36   2.0000      -0.283060        -7.7025 
  37   2.0000      -0.278834        -7.5875 
  38   2.0000      -0.268497        -7.3062 
  39   2.0000      -0.261728        -7.1220 
  40   2.0000      -0.249145        -6.7796 
  41   2.0000      -0.230730        -6.2785 
  42   0.0000      -0.042251        -1.1497 
  43   0.0000      -0.019138        -0.5208 
  44   0.0000       0.049880         1.3573 
  45   0.0000       0.060955         1.6587 
  46   0.0000       0.075786         2.0623 
  47   0.0000       0.082849         2.2544 
  48   0.0000       0.086661         2.3582 
  49   0.0000       0.102813         2.7977 
  50   0.0000       0.105479         2.8702 
  51   0.0000       0.138861         3.7786 
  52   0.0000       0.150204         4.0873 
  53   0.0000       0.178392         4.8543 
  54   0.0000       0.188237         5.1222 
  55   0.0000       0.234346         6.3769 
  56   0.0000       0.238701         6.4954 
  57   0.0000       0.261376         7.1124 
  58   0.0000       0.295520         8.0415 
  59   0.0000       0.303707         8.2643 
  60   0.0000       0.318610         8.6698 
  61   0.0000       0.330492         8.9931 
  62   0.0000       0.358192         9.7469 
  63   0.0000       0.406494        11.0613 
  64   0.0000       0.414333        11.2746 
  65   0.0000       0.437848        11.9145 
  66   0.0000       0.449925        12.2431 
  67   0.0000       0.459552        12.5050 
  68   0.0000       0.462297        12.5798 
  69   0.0000       0.482358        13.1256 
  70   0.0000       0.496347        13.5063 
  71   0.0000       0.499284        13.5862 
  72   0.0000       0.520532        14.1644 
  73   0.0000       0.527588        14.3564 
  74   0.0000       0.545671        14.8485 
  75   0.0000       0.547669        14.9028 
  76   0.0000       0.557416        15.1681 
  77   0.0000       0.577573        15.7166 
  78   0.0000       0.581740        15.8299 
  79   0.0000       0.586925        15.9710 
  80   0.0000       0.596988        16.2449 
  81   0.0000       0.615018        16.7355 
  82   0.0000       0.643078        17.4990 
  83   0.0000       0.664884        18.0924 
  84   0.0000       0.666381        18.1332 
  85   0.0000       0.681626        18.5480 
  86   0.0000       0.690211        18.7816 
  87   0.0000       0.700315        19.0565 
  88   0.0000       0.735210        20.0061 
  89   0.0000       0.756751        20.5922 
  90   0.0000       0.771712        20.9994 
  91   0.0000       0.778217        21.1764 
  92   0.0000       0.802176        21.8283 
  93   0.0000       0.821110        22.3435 
  94   0.0000       0.828556        22.5461 
  95   0.0000       0.845737        23.0137 
  96   0.0000       0.869766        23.6675 
  97   0.0000       0.879885        23.9429 
  98   0.0000       0.890082        24.2204 
  99   0.0000       0.911779        24.8108 
 100   0.0000       0.922722        25.1085 
 101   0.0000       0.935697        25.4616 
 102   0.0000       0.955046        25.9881 
 103   0.0000       0.977445        26.5976 
 104   0.0000       0.992177        26.9985 
 105   0.0000       1.004950        27.3461 
 106   0.0000       1.012628        27.5550 
 107   0.0000       1.025417        27.9030 
 108   0.0000       1.034882        28.1606 
 109   0.0000       1.038678        28.2639 
 110   0.0000       1.070463        29.1288 
 111   0.0000       1.084564        29.5125 
 112   0.0000       1.117733        30.4150 
 113   0.0000       1.124901        30.6101 
 114   0.0000       1.135633        30.9021 
 115   0.0000       1.146159        31.1886 
 116   0.0000       1.162474        31.6325 
 117   0.0000       1.176815        32.0228 
 118   0.0000       1.270843        34.5814 
 119   0.0000       1.280970        34.8570 
 120   0.0000       1.301117        35.4052 
 121   0.0000       1.306686        35.5567 
 122   0.0000       1.343306        36.5532 
 123   0.0000       1.349422        36.7196 
 124   0.0000       1.383593        37.6495 
 125   0.0000       1.393825        37.9279 
 126   0.0000       1.411143        38.3992 
 127   0.0000       1.474840        40.1324 
 128   0.0000       1.483523        40.3687 
 129   0.0000       1.488003        40.4906 
 130   0.0000       1.493613        40.6433 
 131   0.0000       1.512457        41.1561 
 132   0.0000       1.516835        41.2752 
 133   0.0000       1.548146        42.1272 
 134   0.0000       1.554568        42.3019 
 135   0.0000       1.580332        43.0030 
 136   0.0000       1.589592        43.2550 
 137   0.0000       1.621984        44.1364 
 138   0.0000       1.632665        44.4271 
 139   0.0000       1.645082        44.7649 
 140   0.0000       1.648477        44.8573 
 141   0.0000       1.672619        45.5143 
 142   0.0000       1.693391        46.0795 
 143   0.0000       1.706036        46.4236 
 144   0.0000       1.718657        46.7670 
 145   0.0000       1.727862        47.0175 
 146   0.0000       1.734720        47.2041 
 147   0.0000       1.750151        47.6240 
 148   0.0000       1.794499        48.8308 
 149   0.0000       1.802266        49.0421 
 150   0.0000       1.852257        50.4025 
 151   0.0000       1.853917        50.4477 
 152   0.0000       1.887413        51.3591 
 153   0.0000       1.900019        51.7022 
 154   0.0000       1.910897        51.9981 
 155   0.0000       1.919810        52.2407 
 156   0.0000       1.940301        52.7983 
 157   0.0000       2.001260        54.4570 
 158   0.0000       2.020052        54.9684 
 159   0.0000       2.036561        55.4176 
 160   0.0000       2.067913        56.2708 
 161   0.0000       2.079800        56.5942 
 162   0.0000       2.122972        57.7690 
 163   0.0000       2.145424        58.3799 
 164   0.0000       2.177786        59.2606 
 165   0.0000       2.199517        59.8519 
 166   0.0000       2.220365        60.4192 
 167   0.0000       2.254126        61.3379 
 168   0.0000       2.257894        61.4404 
 169   0.0000       2.267516        61.7022 
 170   0.0000       2.279371        62.0248 
 171   0.0000       2.306100        62.7522 
 172   0.0000       2.366879        64.4060 
 173   0.0000       2.393694        65.1357 
 174   0.0000       2.401781        65.3558 
 175   0.0000       2.430240        66.1302 
 176   0.0000       2.448457        66.6259 
 177   0.0000       2.484208        67.5987 
 178   0.0000       2.527257        68.7701 
 179   0.0000       2.548689        69.3534 
 180   0.0000       2.587303        70.4041 
 181   0.0000       2.602794        70.8256 
 182   0.0000       2.634788        71.6962 
 183   0.0000       2.677772        72.8659 
 184   0.0000       2.687395        73.1277 
 185   0.0000       2.695589        73.3507 
 186   0.0000       2.731627        74.3313 
 187   0.0000       2.733703        74.3878 
 188   0.0000       2.753977        74.9395 
 189   0.0000       2.791594        75.9631 
 190   0.0000       2.838248        77.2326 
 191   0.0000       2.864201        77.9389 
 192   0.0000       2.926107        79.6234 
 193   0.0000       2.965148        80.6858 
 194   0.0000       3.040973        82.7491 
 195   0.0000       3.050031        82.9956 
 196   0.0000       3.129790        85.1659 
 197   0.0000       3.220316        87.6293 
 198   0.0000       3.296185        89.6938 
 199   0.0000       3.384371        92.0934 
 200   0.0000       3.422361        93.1272 
 201   0.0000       3.472488        94.4912 
 202   0.0000       3.508445        95.4696 
 203   0.0000       3.536813        96.2416 
-------
TIMINGS
-------

Total SCF time: 0 days 0 hours 0 min 30 sec 

Total time                  ....      30.469 sec
Sum of individual times     ....      30.357 sec  ( 99.6%)

Fock matrix formation       ....      28.500 sec  ( 93.5%)
  Split-RI-J                ....       4.568 sec  ( 16.0% of F)
  Chain of spheres X        ....      21.959 sec  ( 77.0% of F)
  COS-X 1 center corr.      ....       0.000 sec  (  0.0% of F)
  XC integration            ....       1.881 sec  (  6.6% of F)
    Basis function eval.    ....       0.621 sec  ( 33.0% of XC)
    Density eval.           ....       0.280 sec  ( 14.9% of XC)
    XC-Functional eval.     ....       0.071 sec  (  3.8% of XC)
    XC-Potential eval.      ....       0.536 sec  ( 28.5% of XC)
Diagonalization             ....       0.084 sec  (  0.3%)
Density matrix formation    ....       0.029 sec  (  0.1%)
Population analysis         ....       0.000 sec  (  0.0%)
Initial guess               ....       0.306 sec  (  1.0%)
Orbital Transformation      ....       0.000 sec  (  0.0%)
Orbital Orthonormalization  ....       0.000 sec  (  0.0%)
DIIS solution               ....       0.028 sec  (  0.1%)
SOSCF solution              ....       0.125 sec  (  0.4%)
Grid generation             ....       1.284 sec  (  4.2%)


-------------------------------------------------------------------------------
                          DFT DISPERSION CORRECTION                            
                                                                               
                              DFTD3 V3.1  Rev 1                                
                          USING Becke-Johnson damping                          
-------------------------------------------------------------------------------
The B3LYP functional is recognized
Active option DFTDOPT                   ...         4   

molecular C6(AA) [au] = 4357.748854 


            DFT-D V3
 parameters
 s6 scaling factor         :     1.0000 
 a1 scaling factor         :     0.3981 
 s8 scaling factor         :     1.9889 
 a2 scaling factor         :     4.4211 
 ad hoc parameters k1-k3   :    16.0000     1.3333    -4.0000 

 Edisp/kcal,au: -19.792667319949  -0.031541619731 
 E6   /kcal   :  -9.711719784 
 E8   /kcal   : -10.080947536 
 % E8         :  50.932738743 

-------------------------   ----------------
Dispersion correction           -0.031541620
-------------------------   ----------------


-------------------------   --------------------
FINAL SINGLE POINT ENERGY      -565.774941026299
-------------------------   --------------------



           ************************************************************
           *        Program running with 6 parallel MPI-processes     *
           *              working on a common directory               *
           ************************************************************
------------------------------------------------------------------------------
                         ORCA SCF GRADIENT CALCULATION
------------------------------------------------------------------------------

Gradient of the Kohn-Sham DFT energy:
Kohn-Sham wavefunction type      ... RKS
Hartree-Fock exchange scaling    ...    0.200
Number of operators              ...    1
Number of atoms                  ...   21
Basis set dimensions             ...  204
Integral neglect threshold       ... 2.5e-11
Integral primitive cutoff        ... 2.5e-12

Nuclear repulsion gradient       ... done
One Electron Gradient            ... done
Pre-screening matrix             ... done
RI-J gradient                    ... done
COSX-gradient                    ... done
Exchange-correlation gradient    ... done
Dispersion correction            ... done

------------------
CARTESIAN GRADIENT
------------------

   1   C   :    0.006532070    0.000533980    0.001866304
   2   C   :    0.010277110   -0.015232536   -0.007952109
   3   N   :   -0.009216934    0.015554347    0.001823334
   4   N   :   -0.014058016   -0.010561135    0.000026757
   5   C   :   -0.000571637    0.009627959    0.001593237
   6   N   :    0.030543269    0.003973267    0.001304206
   7   C   :   -0.003829873   -0.033102697   -0.005030850
   8   O   :   -0.009937170    0.009144295    0.006990778
   9   N   :    0.005366300    0.026724372   -0.002611424
  10   C   :   -0.005560490   -0.008864688    0.003405915
  11   O   :    0.007093326   -0.003482180   -0.000235303
  12   H   :   -0.004144269    0.005192757    0.000465537
  13   H   :   -0.006149050    0.002029588    0.001916804
  14   H   :    0.002945811   -0.000011603    0.001501173
  15   H   :    0.003621049   -0.000491181    0.003272897
  16   H   :   -0.004912135   -0.000641000   -0.000544608
  17   H   :    0.004870532   -0.005151012   -0.000514386
  18   H   :    0.003928283    0.005562639   -0.001436593
  19   H   :   -0.000657789   -0.000815800   -0.001668193
  20   H   :   -0.025407715   -0.000421844   -0.001114840
  21   H   :    0.007927865    0.002436365   -0.000211664

Difference to translation invariance:
           :   -0.0013394629    0.0020038927    0.0028469709

Norm of the cartesian gradient     ...    0.0734948286
RMS gradient                       ...    0.0092594780
MAX gradient                       ...    0.0331026965

-------
TIMINGS
-------

Total SCF gradient time            ...        6.209 sec

One electron gradient       ....       0.104 sec  (  1.7%)
Prescreening matrices       ....       0.137 sec  (  2.2%)
RI-J Coulomb gradient       ....       1.020 sec  ( 16.4%)
COSX gradient               ....       2.902 sec  ( 46.7%)
XC gradient                 ....       1.585 sec  ( 25.5%)
------------------------------------------------------------------------------
                         ORCA GEOMETRY RELAXATION STEP
------------------------------------------------------------------------------

Reading the OPT-File                    .... done
Getting information on internals        .... done
Copying old internal coords+grads       .... done
Making the new internal coordinates     .... (new redundants).... done
Validating the new internal coordinates .... (new redundants).... done
Calculating the B-matrix                .... done
Calculating the G,G- and P matrices     .... done
Transforming gradient to internals      .... done
Projecting the internal gradient        .... done
Number of atoms                         ....  21
Number of internal coordinates          ....  88
Current Energy                          ....  -565.774941026 Eh
Current gradient norm                   ....     0.073494829 Eh/bohr
Maximum allowed component of the step   ....  0.300
Current trust radius                    ....  0.300
Evaluating the initial hessian          ....  (Almloef) done
Projecting the Hessian                  .... done
Forming the augmented Hessian           .... done
Diagonalizing the augmented Hessian     .... done
Last element of RFO vector              ....  0.954336590
Lowest eigenvalues of augmented Hessian:
 -0.012635591  0.012587404  0.012647943  0.025533927  0.027244096
Length of the computed step             ....  0.313027343
Warning: the length of the step is outside the trust region - taking restricted step instead
The input lambda is                     ....    -0.012636
   iter:   1  x=   -0.014719  g=    3.833267 f(x)=     0.007986
   iter:   2  x=   -0.014890  g=    3.308114 f(x)=     0.000566
   iter:   3  x=   -0.014891  g=    3.269589 f(x)=     0.000003
   iter:   4  x=   -0.014891  g=    3.269363 f(x)=     0.000000
   iter:   5  x=   -0.014891  g=    3.269363 f(x)=     0.000000
The output lambda is                    ....    -0.014891 (5 iterations)
The final length of the internal step   ....  0.300000000
Converting the step to cartesian space:
 Initial RMS(Int)=    0.0319801075
Transforming coordinates:
 Iter   0:  RMS(Cart)=    0.0819529653 RMS(Int)=    1.3345627913
 Iter   1:  RMS(Cart)=    0.0016002464 RMS(Int)=    0.0007532632
 Iter   2:  RMS(Cart)=    0.0001118872 RMS(Int)=    0.0000638514
 Iter   3:  RMS(Cart)=    0.0000476268 RMS(Int)=    0.0000234006
 Iter   4:  RMS(Cart)=    0.0000226678 RMS(Int)=    0.0000113895
 Iter   5:  RMS(Cart)=    0.0000111016 RMS(Int)=    0.0000055768
 Iter   6:  RMS(Cart)=    0.0000054410 RMS(Int)=    0.0000027318
 Iter   7:  RMS(Cart)=    0.0000026653 RMS(Int)=    0.0000013382
 Iter   8:  RMS(Cart)=    0.0000013056 RMS(Int)=    0.0000006555
 Iter   9:  RMS(Cart)=    0.0000006395 RMS(Int)=    0.0000003211
 Iter  10:  RMS(Cart)=    0.0000003133 RMS(Int)=    0.0000001573
 Iter  11:  RMS(Cart)=    0.0000001535 RMS(Int)=    0.0000000771
 Iter  12:  RMS(Cart)=    0.0000000752 RMS(Int)=    0.0000000377
done
Storing new coordinates                 .... done

                                .--------------------.
          ----------------------|Geometry convergence|-------------------------
          Item                value                   Tolerance       Converged
          ---------------------------------------------------------------------
          RMS gradient        0.0072726722            0.0020000000      NO
          MAX gradient        0.0341170615            0.0030000000      NO
          RMS step            0.0319801075            0.0200000000      NO
          MAX step            0.1393579738            0.0300000000      NO
          ........................................................
          Max(Bonds)      0.0737      Max(Angles)    2.41
          Max(Dihed)        4.90      Max(Improp)    0.00
          ---------------------------------------------------------------------

The optimization has not yet converged - more geometry cycles are needed


    ---------------------------------------------------------------------------
                         Redundant Internal Coordinates
                            (Angstroem and degrees)

        Definition                    Value    dE/dq     Step     New-Value
    ----------------------------------------------------------------------------
     1. B(C   1,C   0)                1.4917  0.002973 -0.0035    1.4882   
     2. B(N   2,C   1)                1.3595 -0.011776  0.0097    1.3692   
     3. B(N   3,C   1)                1.2965 -0.002474  0.0023    1.2988   
     4. B(C   4,C   0)                1.3384  0.002774 -0.0019    1.3365   
     5. B(C   6,N   5)                1.3565 -0.034117  0.0279    1.3843   
     6. B(O   7,C   6)                1.2263  0.002372 -0.0012    1.2251   
     7. B(N   8,C   6)                1.3644 -0.023296  0.0196    1.3840   
     8. B(C   9,N   8)                1.3708  0.006585 -0.0055    1.3653   
     9. B(O  10,C   9)                1.2271  0.001721 -0.0013    1.2258   
    10. B(H  11,C   0)                1.0861 -0.006446  0.0090    1.0951   
    11. B(H  12,N   2)                1.0121 -0.003625  0.0043    1.0164   
    12. B(H  13,N   2)                1.0243 -0.009088  0.0098    1.0341   
    13. B(H  13,O  10)                1.8172 -0.006398  0.0737    1.8909   
    14. B(H  14,N   3)                1.0245  0.001749 -0.0022    1.0224   
    15. B(H  15,C   4)                1.0855 -0.004865  0.0068    1.0922   
    16. B(H  16,C   4)                1.0834 -0.006952  0.0096    1.0929   
    17. B(H  17,N   5)                1.0105 -0.005870  0.0070    1.0174   
    18. B(H  18,N   5)                1.0151 -0.000578  0.0007    1.0158   
    19. B(H  19,N   3)                1.6831 -0.003707  0.0494    1.7324   
    20. B(H  19,N   8)                1.0261 -0.029181  0.0379    1.0640   
    21. B(H  20,C   9)                1.1001 -0.008084  0.0118    1.1119   
    22. A(C   4,C   0,H  11)          119.48  0.000403   -0.07    119.41   
    23. A(C   1,C   0,C   4)          125.21  0.001134   -0.16    125.05   
    24. A(C   1,C   0,H  11)          115.30 -0.001553    0.25    115.54   
    25. A(C   0,C   1,N   2)          119.59  0.016854   -2.41    117.18   
    26. A(C   0,C   1,N   3)          124.15 -0.005666    0.64    124.78   
    27. A(N   2,C   1,N   3)          116.26 -0.011184    1.77    118.03   
    28. A(C   1,N   2,H  13)          113.75  0.003769   -0.17    113.58   
    29. A(C   1,N   2,H  12)          117.25  0.000324    0.14    117.40   
    30. A(H  12,N   2,H  13)          111.25 -0.004888    1.47    112.73   
    31. A(C   1,N   3,H  14)          110.56 -0.008669    1.14    111.70   
    32. A(C   1,N   3,H  19)          130.83  0.010766   -1.42    129.41   
    33. A(H  14,N   3,H  19)          118.61 -0.002101    0.28    118.89   
    34. A(H  15,C   4,H  16)          116.43 -0.000818    0.14    116.58   
    35. A(C   0,C   4,H  16)          123.79  0.003425   -0.52    123.26   
    36. A(C   0,C   4,H  15)          119.78 -0.002607    0.38    120.16   
    37. A(H  17,N   5,H  18)          112.29  0.000002    0.19    112.48   
    38. A(C   6,N   5,H  18)          111.27  0.001556   -0.13    111.14   
    39. A(C   6,N   5,H  17)          117.23 -0.002991    0.56    117.79   
    40. A(O   7,C   6,N   8)          122.97  0.013248   -1.55    121.42   
    41. A(N   5,C   6,N   8)          117.29  0.003327   -0.41    116.88   
    42. A(N   5,C   6,O   7)          119.74 -0.016583    1.97    121.71   
    43. A(C   9,N   8,H  19)          115.04 -0.004077    0.86    115.90   
    44. A(C   6,N   8,H  19)          114.65 -0.006966    0.81    115.45   
    45. A(C   6,N   8,C   9)          130.31  0.011044   -1.67    128.65   
    46. A(O  10,C   9,H  20)          121.67  0.002551   -0.38    121.29   
    47. A(N   8,C   9,H  20)          114.38 -0.001651    0.25    114.63   
    48. A(N   8,C   9,O  10)          123.94 -0.000907    0.13    124.07   
    49. A(C   9,O  10,H  13)          121.60 -0.004474    0.58    122.18   
    50. L(N   2,H  13,O  10,C   1, 2) 181.11 -0.000142   -0.08    181.03   
    51. L(N   2,H  13,O  10,C   1, 1) 179.21  0.003346   -1.08    178.13   
    52. A(N   3,H  19,N   8)          173.88  0.003609   -0.28    173.60   
    53. D(N   3,C   1,C   0,H  11)   -178.30 -0.000606    0.80   -177.49   
    54. D(N   2,C   1,C   0,C   4)    179.99  0.000202    0.04    180.03   
    55. D(N   3,C   1,C   0,C   4)      0.19 -0.001308    1.77      1.97   
    56. D(N   2,C   1,C   0,H  11)      1.50  0.000904   -0.93      0.57   
    57. D(H  13,N   2,C   1,C   0)    165.52 -0.000739    1.06    166.59   
    58. D(H  13,N   2,C   1,N   3)    -14.67  0.000660   -0.54    -15.21   
    59. D(H  12,N   2,C   1,C   0)     33.28  0.002351   -1.18     32.10   
    60. D(H  12,N   2,C   1,N   3)   -146.91  0.003750   -2.78   -149.69   
    61. D(H  19,N   3,C   1,N   2)      1.88 -0.001765    2.34      4.23   
    62. D(H  19,N   3,C   1,C   0)   -178.32 -0.000249    0.65   -177.66   
    63. D(H  14,N   3,C   1,N   2)   -178.55 -0.002522    2.73   -175.82   
    64. D(H  14,N   3,C   1,C   0)      1.25 -0.001006    1.04      2.29   
    65. D(H  16,C   4,C   0,C   1)      0.96  0.000273   -0.40      0.56   
    66. D(H  15,C   4,C   0,H  11)     -0.56  0.000033    0.08     -0.48   
    67. D(H  15,C   4,C   0,C   1)   -178.99  0.000788   -0.93   -179.92   
    68. D(H  16,C   4,C   0,H  11)    179.39 -0.000482    0.61    180.01   
    69. D(N   8,C   6,N   5,H  18)    176.49  0.000070   -0.46    176.03   
    70. D(N   8,C   6,N   5,H  17)     45.34  0.001365   -1.16     44.18   
    71. D(O   7,C   6,N   5,H  18)     -3.36  0.003073   -4.20     -7.56   
    72. D(O   7,C   6,N   5,H  17)   -134.51  0.004368   -4.90   -139.41   
    73. D(H  19,N   8,C   6,O   7)     -0.58 -0.003589    4.49      3.92   
    74. D(H  19,N   8,C   6,N   5)    179.58 -0.000433    0.62    180.20   
    75. D(C   9,N   8,C   6,O   7)    179.96 -0.003716    4.61    184.57   
    76. D(C   9,N   8,C   6,N   5)      0.12 -0.000560    0.74      0.86   
    77. D(H  20,C   9,N   8,H  19)   -178.68 -0.000184    0.68   -178.00   
    78. D(H  20,C   9,N   8,C   6)      0.78 -0.000068    0.56      1.34   
    79. D(O  10,C   9,N   8,H  19)      0.55 -0.000705    0.88      1.43   
    80. D(O  10,C   9,N   8,C   6)   -180.00 -0.000589    0.77   -179.23   
    81. D(H  13,O  10,C   9,N   8)    -10.62  0.000459    0.23    -10.39   
    82. D(C   9,O  10,N   2,H  12)    160.11  0.001198    0.09    160.21   
    83. D(C   9,O  10,N   2,C   1)     25.49  0.001265   -1.23     24.26   
    84. D(H  13,O  10,C   9,H  20)    168.55 -0.000132    0.45    169.00   
    85. D(N   3,H  19,N   8,C   9)    -36.75  0.001259   -0.28    -37.03   
    86. D(N   3,H  19,N   8,C   6)    143.71  0.001063   -0.17    143.53   
    87. D(N   8,H  19,N   3,H  14)   -130.39  0.001775   -3.01   -133.40   
    88. D(N   8,H  19,N   3,C   1)     49.14  0.000950   -2.59     46.55   
    ----------------------------------------------------------------------------

         *************************************************************
         *                GEOMETRY OPTIMIZATION CYCLE   2            *
         *************************************************************
---------------------------------
CARTESIAN COORDINATES (ANGSTROEM)
---------------------------------
  C      3.131217   -0.524891    0.002357
  C      1.648702   -0.605047   -0.099232
  N      1.102425   -1.842589   -0.311464
  N      0.845716    0.413888   -0.036680
  C      3.826886    0.597647    0.207750
  N     -4.001243    1.548332   -0.058920
  C     -2.619290    1.597514   -0.123241
  O     -2.021260    2.649418   -0.314932
  N     -1.946500    0.391011   -0.038787
  C     -2.463000   -0.866634    0.085125
  O     -1.782696   -1.883008    0.166799
  H      3.664414   -1.474449   -0.112722
  H      1.586718   -2.642216    0.087411
  H      0.080705   -1.876095   -0.155012
  H      1.358044    1.293857    0.054990
  H      4.916977    0.564469    0.267761
  H      3.360021    1.578138    0.331054
  H     -4.422234    0.948350    0.646745
  H     -4.401695    2.481856   -0.064109
  H     -0.885495    0.454518   -0.086723
  H     -3.573912   -0.912470    0.098030

----------------------------
CARTESIAN COORDINATES (A.U.)
----------------------------
  NO LB      ZA    FRAG     MASS         X           Y           Z
   0 C     6.0000    0    12.011    5.917142   -0.991900    0.004454
   1 C     6.0000    0    12.011    3.115595   -1.143373   -0.187520
   2 N     7.0000    0    14.007    2.083282   -3.481989   -0.588581
   3 N     7.0000    0    14.007    1.598171    0.782136   -0.069315
   4 C     6.0000    0    12.011    7.231766    1.129390    0.392591
   5 N     7.0000    0    14.007   -7.561253    2.925923   -0.111343
   6 C     6.0000    0    12.011   -4.949740    3.018864   -0.232892
   7 O     8.0000    0    15.999   -3.819627    5.006675   -0.595136
   8 N     7.0000    0    14.007   -3.678352    0.738904   -0.073297
   9 C     6.0000    0    12.011   -4.654395   -1.637701    0.160863
  10 O     8.0000    0    15.999   -3.368807   -3.558369    0.315204
  11 H     1.0000    0     1.008    6.924738   -2.786306   -0.213014
  12 H     1.0000    0     1.008    2.998462   -4.993064    0.165182
  13 H     1.0000    0     1.008    0.152511   -3.545306   -0.292931
  14 H     1.0000    0     1.008    2.566331    2.445036    0.103916
  15 H     1.0000    0     1.008    9.291740    1.066693    0.505995
  16 H     1.0000    0     1.008    6.349519    2.982248    0.625602
  17 H     1.0000    0     1.008   -8.356812    1.792122    1.222172
  18 H     1.0000    0     1.008   -8.317999    4.690028   -0.121148
  19 H     1.0000    0     1.008   -1.673343    0.858914   -0.163884
  20 H     1.0000    0     1.008   -6.753715   -1.724319    0.185250

--------------------------------
INTERNAL COORDINATES (ANGSTROEM)
--------------------------------
 C      0   0   0     0.000000000000     0.00000000     0.00000000
 C      1   0   0     1.488151901104     0.00000000     0.00000000
 N      2   1   0     1.369296229261   117.17414183     0.00000000
 N      2   1   3     1.298818123233   124.77522454   181.91818655
 C      1   2   3     1.336500365065   125.04883869   180.03798869
 N      4   2   1     4.977997810695   141.30978476   182.83845285
 C      6   4   2     1.384322962302    15.48396884   195.70214907
 O      7   6   4     1.225107518815   121.67393886   181.70399545
 N      7   6   4     1.383989864175   116.83892286     5.36272724
 C      9   7   6     1.365209500859   128.65982098     0.89416041
 O     10   9   7     1.225765177209   124.05010495   180.77946291
 H      1   2   3     1.095081614280   115.54236174     0.57534650
 H      3   2   1     1.016386830416   117.39463002    32.08351318
 H      3   2   1     1.034172014975   113.57673960   166.54044717
 H      4   2   1     1.022364510604   111.69995142     2.26005911
 H      5   1   2     1.092245798307   120.16018319   180.07763208
 H      5   1   2     1.092944723653   123.26296808     0.56267047
 H      6   4   2     1.017435561366   105.39064779    50.84393626
 H      6   4   2     1.015803581953   126.39156577   184.91422386
 H      9   7   6     1.063984584654   115.46627008   180.22956189
 H     10   9   7     1.111932064582   114.64598781     1.34301826

---------------------------
INTERNAL COORDINATES (A.U.)
---------------------------
 C      0   0   0     0.000000000000     0.00000000     0.00000000
 C      1   0   0     2.812199538761     0.00000000     0.00000000
 N      2   1   0     2.587594869514   117.17414183     0.00000000
 N      2   1   3     2.454410550684   124.77522454   181.91818655
 C      1   2   3     2.525619667859   125.04883869   180.03798869
 N      4   2   1     9.407052557474   141.30978476   182.83845285
 C      6   4   2     2.615991279649    15.48396884   195.70214907
 O      7   6   4     2.315117695168   121.67393886   181.70399545
 N      7   6   4     2.615361815414   116.83892286     5.36272724
 C      9   7   6     2.579872072050   128.65982098     0.89416041
 O     10   9   7     2.316360489423   124.05010495   180.77946291
 H      1   2   3     2.069404345282   115.54236174     0.57534650
 H      3   2   1     1.920692755611   117.39463002    32.08351318
 H      3   2   1     1.954301883668   113.57673960   166.54044717
 H      4   2   1     1.931988934081   111.69995142     2.26005911
 H      5   1   2     2.064045429727   120.16018319   180.07763208
 H      5   1   2     2.065366207219   123.26296808     0.56267047
 H      6   4   2     1.922674569894   105.39064779    50.84393626
 H      6   4   2     1.919590575748   126.39156577   184.91422386
 H      9   7   6     2.010639475710   115.46627008   180.22956189
 H     10   9   7     2.101247081586   114.64598781     1.34301826



           ************************************************************
           *        Program running with 6 parallel MPI-processes     *
           *              working on a common directory               *
           ************************************************************
 One Electron integrals                  ... done
 Pre-screening matrix                    ... done


           ************************************************************
           *        Program running with 6 parallel MPI-processes     *
           *              working on a common directory               *
           ************************************************************

Diagonalization of the overlap matrix:
Smallest eigenvalue                        ... 1.958e-03
Time for diagonalization                   ...    0.011 sec
Threshold for overlap eigenvalues          ... 1.000e-08
Number of eigenvalues below threshold      ... 0
Time for construction of square roots      ...    0.004 sec
Total time needed                          ...    0.015 sec

-------------------
DFT GRID GENERATION
-------------------

General Integration Accuracy     IntAcc      ...  4.340
Radial Grid Type                 RadialGrid  ... Gauss-Chebyshev
Angular Grid (max. acc.)         AngularGrid ... Lebedev-110
Angular grid pruning method      GridPruning ... 3 (G Style)
Weight generation scheme         WeightScheme... Becke
Basis function cutoff            BFCut       ...    1.0000e-11
Integration weight cutoff        WCut        ...    1.0000e-14
Grids for H and He will be reduced by one unit

# of grid points (after initial pruning)     ...  26460 (   0.0 sec)
# of grid points (after weights+screening)   ...  24581 (   0.0 sec)
nearest neighbour list constructed           ...    0.0 sec
Grid point re-assignment to atoms done       ...    0.0 sec
Grid point division into batches done        ...    0.0 sec
Reduced shell lists constructed in    0.1 sec

Total number of grid points                  ...    24581
Total number of batches                      ...      394
Average number of points per batch           ...       62
Average number of grid points per atom       ...     1171
Average number of shells per batch           ...    66.85 (69.64%)
Average number of basis functions per batch  ...   137.09 (67.20%)
Average number of large shells per batch     ...    49.07 (73.41%)
Average number of large basis fcns per batch ...   100.60 (73.38%)
Maximum spatial batch extension              ...   6.18,  9.81, 19.78 au
Average spatial batch extension              ...   0.31,  0.32,  0.51 au

Time for grid setup =    0.135 sec

--------------------
COSX GRID GENERATION
--------------------

General Integration Accuracy     IntAcc      ...  3.340
Radial Grid Type                 RadialGrid  ... Gauss-Chebyshev
Angular Grid (max. acc.)         AngularGrid ... Lebedev-50
Angular grid pruning method      GridPruning ... 3 (G Style)
Weight generation scheme         WeightScheme... Becke
Basis function cutoff            BFCut       ...    1.0000e-11
Integration weight cutoff        WCut        ...    1.0000e-14
Grids for H and He will be reduced by one unit

# of grid points (after initial pruning)     ...   9524 (   0.0 sec)
# of grid points (after weights+screening)   ...   8905 (   0.0 sec)
nearest neighbour list constructed           ...    0.0 sec
Grid point re-assignment to atoms done       ...    0.0 sec
[...]
Average number of large shells per batch     ...    50.02 (74.01%)
Average number of large basis fcns per batch ...   102.50 (73.94%)
Maximum spatial batch extension              ...   4.00,  9.04, 15.72 au
Average spatial batch extension              ...   0.31,  0.33,  0.48 au

Overlap Fitting                  UseSFitting ... on
Constructing numerical overlap ... done (      0.0 sec)
Inverting numerical overlap    ... done (      0.0 sec)
Obtaining analytic overlap     ... done (      0.0 sec)
Final contraction and storage  ... done (      0.0 sec)

Time for X-Grid setup             =    0.268 sec
--------------
SCF ITERATIONS
--------------
ITER       Energy         Delta-E        Max-DP      RMS-DP      [F,P]     Damp
               ***  Starting incremental Fock matrix formation  ***
  0   -565.7537207285   0.000000000000 0.00308097  0.00006498  0.0140626 0.7000
                      *** Initiating the SOSCF procedure ***
                      *** Re-Reading the Fockian *** 
                      *** Removing any level shift *** 
ITER      Energy       Delta-E        Grad      Rot      Max-DP    RMS-DP
  1   -565.75397028  -0.0002495505  0.001517  0.001517  0.009861  0.000202
               *** Restarting incremental Fock matrix formation ***
  2   -565.75468297  -0.0007126903  0.001031  0.002676  0.002314  0.000057
  3   -565.75471904  -0.0000360738  0.000190  0.001108  0.001093  0.000027
  4   -565.75471517   0.0000038718  0.000432  0.000731  0.000815  0.000017
  5   -565.75472099  -0.0000058174  0.000030  0.000067  0.000162  0.000003
  6   -565.75472096   0.0000000238  0.000039  0.000053  0.000121  0.000002
  7   -565.75472105  -0.0000000814  0.000008  0.000030  0.000045  0.000001
  8   -565.75472104   0.0000000020  0.000013  0.000018  0.000033  0.000001
                  ***Gradient check signals convergence***
              ***Rediagonalizing the Fockian in SOSCF/NRSCF***

               *****************************************************
               *                     SUCCESS                       *
               *           SCF CONVERGED AFTER   9 CYCLES          *
               *****************************************************

Setting up the final grid:

General Integration Accuracy     IntAcc      ...  4.670
Radial Grid Type                 RadialGrid  ... Gauss-Chebyshev
Angular Grid (max. acc.)         AngularGrid ... Lebedev-302
Angular grid pruning method      GridPruning ... 3 (G Style)
Weight generation scheme         WeightScheme... Becke
Basis function cutoff            BFCut       ...    1.0000e-11
Integration weight cutoff        WCut        ...    1.0000e-14
Grids for H and He will be reduced by one unit

# of grid points (after initial pruning)     ... 102272 (   0.0 sec)
# of grid points (after weights+screening)   ...  93523 (   0.1 sec)
nearest neighbour list constructed           ...    0.0 sec
Grid point re-assignment to atoms done       ...    0.0 sec
Grid point division into batches done        ...    0.3 sec
Reduced shell lists constructed in    0.5 sec

Total number of grid points                  ...    93523
Total number of batches                      ...     1470
Average number of points per batch           ...       63
Average number of grid points per atom       ...     4453
Average number of shells per batch           ...    65.55 (68.28%)
Average number of basis functions per batch  ...   134.10 (65.74%)
Average number of large shells per batch     ...    47.30 (72.16%)
Average number of large basis fcns per batch ...    96.89 (72.25%)
Maximum spatial batch extension              ...   4.28, 11.22, 14.48 au
Average spatial batch extension              ...   0.20,  0.21,  0.25 au

Final grid set up in    0.6 sec
Final integration                            ... done (   0.2 sec)
Change in XC energy                          ...     0.000267420
Integrated number of electrons               ...    83.999947259
Previous integrated no of electrons          ...    84.005893106
Old exchange energy                            =    -14.472495461 Eh
New exchange energy                            =    -14.472202346 Eh
Exchange energy change after final integration =      0.000293115 Eh
Total energy after final integration           =   -565.754160516 Eh
Final COS-X integration done in                =     1.949 sec

----------------
TOTAL SCF ENERGY
----------------

Total Energy       :         -565.75416052 Eh          -15394.95337 eV

Components:
Nuclear Repulsion  :          587.77435051 Eh           15994.15320 eV
Electronic Energy  :        -1153.52851102 Eh          -31389.10658 eV
One Electron Energy:        -1936.42483032 Eh          -52692.79848 eV
Two Electron Energy:          782.89631930 Eh           21303.69191 eV

Virial components:
Potential Energy   :        -1128.13050235 Eh          -30697.99162 eV
Kinetic Energy     :          562.37634183 Eh           15303.03825 eV
Virial Ratio       :            2.00600633


DFT components:
N(Alpha)           :       41.999973629689 electrons
N(Beta)            :       41.999973629689 electrons
N(Total)           :       83.999947259378 electrons
E(X)               :      -57.568206432637 Eh       
E(C)               :       -3.395139971358 Eh       
E(XC)              :      -60.963346403994 Eh       

---------------
SCF CONVERGENCE
---------------

  Last Energy change         ...   -5.6091e-09  Tolerance :   1.0000e-08
  Last MAX-Density change    ...    1.9745e-13  Tolerance :   1.0000e-07
  Last RMS-Density change    ...    1.0735e-15  Tolerance :   5.0000e-09
  Last Orbital Gradient      ...    2.1362e-06  Tolerance :   1.0000e-05
  Last Orbital Rotation      ...    4.8604e-06  Tolerance :   1.0000e-05

             **** THE GBW FILE WAS UPDATED (AT-v/e/frag_30_c00001.gbw) ****
             **** DENSITY FILE WAS UPDATED (AT-v/e/frag_30_c00001.scfp.tmp) ****
             **** ENERGY FILE WAS UPDATED (AT-v/e/frag_30_c00001.en.tmp) ****
----------------
ORBITAL ENERGIES
----------------

  NO   OCC          E(Eh)            E(eV) 
   0   2.0000     -19.123305      -520.3716 
   1   2.0000     -19.100559      -519.7526 
   2   2.0000     -14.348772      -390.4499 
   3   2.0000     -14.345313      -390.3558 
   4   2.0000     -14.332737      -390.0136 
   5   2.0000     -14.291688      -388.8966 
   6   2.0000     -10.311768      -280.5975 
   7   2.0000     -10.294600      -280.1303 
   8   2.0000     -10.263264      -279.2776 
   9   2.0000     -10.208918      -277.7988 
  10   2.0000     -10.206569      -277.7349 
  11   2.0000      -1.051018       -28.5997 
  12   2.0000      -1.034581       -28.1524 
  13   2.0000      -0.944412       -25.6988 
  14   2.0000      -0.923355       -25.1258 
  15   2.0000      -0.886717       -24.1288 
  16   2.0000      -0.845725       -23.0134 
  17   2.0000      -0.781440       -21.2641 
  18   2.0000      -0.647743       -17.6260 
  19   2.0000      -0.639802       -17.4099 
  20   2.0000      -0.602519       -16.3954 
  21   2.0000      -0.567229       -15.4351 
  22   2.0000      -0.553744       -15.0681 
  23   2.0000      -0.521935       -14.2026 
  24   2.0000      -0.504213       -13.7203 
  25   2.0000      -0.492482       -13.4011 
  26   2.0000      -0.463111       -12.6019 
  27   2.0000      -0.454060       -12.3556 
  28   2.0000      -0.439250       -11.9526 
  29   2.0000      -0.425040       -11.5659 
  30   2.0000      -0.423448       -11.5226 
  31   2.0000      -0.411435       -11.1957 
  32   2.0000      -0.385834       -10.4991 
  33   2.0000      -0.383852       -10.4451 
  34   2.0000      -0.381148       -10.3716 
  35   2.0000      -0.290633        -7.9085 
  36   2.0000      -0.283720        -7.7204 
  37   2.0000      -0.276265        -7.5175 
  38   2.0000      -0.266363        -7.2481 
  39   2.0000      -0.258289        -7.0284 
  40   2.0000      -0.252889        -6.8815 
  41   2.0000      -0.234404        -6.3784 
  42   0.0000      -0.038098        -1.0367 
  43   0.0000      -0.009999        -0.2721 
  44   0.0000       0.051771         1.4088 
  45   0.0000       0.060597         1.6489 
  46   0.0000       0.072889         1.9834 
  47   0.0000       0.079230         2.1560 
  48   0.0000       0.082295         2.2394 
  49   0.0000       0.101101         2.7511 
  50   0.0000       0.105934         2.8826 
  51   0.0000       0.138133         3.7588 
  52   0.0000       0.147153         4.0042 
  53   0.0000       0.165012         4.4902 
  54   0.0000       0.177881         4.8404 
  55   0.0000       0.227113         6.1800 
  56   0.0000       0.238958         6.5024 
  57   0.0000       0.258128         7.0240 
  58   0.0000       0.292721         7.9653 
  59   0.0000       0.301480         8.2037 
  60   0.0000       0.312601         8.5063 
  61   0.0000       0.316641         8.6162 
  62   0.0000       0.359307         9.7772 
  63   0.0000       0.379026        10.3138 
  64   0.0000       0.401250        10.9186 
  65   0.0000       0.435667        11.8551 
  66   0.0000       0.453377        12.3370 
  67   0.0000       0.455167        12.3857 
  68   0.0000       0.465575        12.6690 
  69   0.0000       0.475176        12.9302 
  70   0.0000       0.490377        13.3438 
  71   0.0000       0.504312        13.7230 
  72   0.0000       0.516126        14.0445 
  73   0.0000       0.527587        14.3564 
  74   0.0000       0.529849        14.4179 
  75   0.0000       0.543389        14.7864 
  76   0.0000       0.550742        14.9864 
  77   0.0000       0.571208        15.5434 
  78   0.0000       0.578047        15.7295 
  79   0.0000       0.587345        15.9825 
  80   0.0000       0.606154        16.4943 
  81   0.0000       0.616253        16.7691 
  82   0.0000       0.645609        17.5679 
  83   0.0000       0.660087        17.9619 
  84   0.0000       0.671752        18.2793 
  85   0.0000       0.680778        18.5249 
  86   0.0000       0.686900        18.6915 
  87   0.0000       0.707735        19.2584 
  88   0.0000       0.727253        19.7896 
  89   0.0000       0.747353        20.3365 
  90   0.0000       0.754853        20.5406 
  91   0.0000       0.780219        21.2308 
  92   0.0000       0.797413        21.6987 
  93   0.0000       0.808677        22.0052 
  94   0.0000       0.813078        22.1250 
  95   0.0000       0.843327        22.9481 
  96   0.0000       0.870409        23.6850 
  97   0.0000       0.881077        23.9753 
  98   0.0000       0.886720        24.1289 
  99   0.0000       0.899690        24.4818 
 100   0.0000       0.945088        25.7172 
 101   0.0000       0.948610        25.8130 
 102   0.0000       0.965163        26.2634 
 103   0.0000       0.980295        26.6752 
 104   0.0000       0.992682        27.0123 
 105   0.0000       1.004270        27.3276 
 106   0.0000       1.015641        27.6370 
 107   0.0000       1.024675        27.8828 
 108   0.0000       1.033661        28.1273 
 109   0.0000       1.060142        28.8479 
 110   0.0000       1.063496        28.9392 
 111   0.0000       1.089865        29.6567 
 112   0.0000       1.107122        30.1263 
 113   0.0000       1.117127        30.3986 
 114   0.0000       1.137740        30.9595 
 115   0.0000       1.147031        31.2123 
 116   0.0000       1.168080        31.7851 
 117   0.0000       1.194938        32.5159 
 118   0.0000       1.244407        33.8620 
 119   0.0000       1.261098        34.3162 
 120   0.0000       1.281488        34.8711 
 121   0.0000       1.310634        35.6642 
 122   0.0000       1.316674        35.8285 
 123   0.0000       1.346397        36.6373 
 124   0.0000       1.359544        36.9951 
 125   0.0000       1.383662        37.6513 
 126   0.0000       1.415358        38.5139 
 127   0.0000       1.462395        39.7938 
 128   0.0000       1.480815        40.2950 
 129   0.0000       1.485539        40.4236 
 130   0.0000       1.489670        40.5360 
 131   0.0000       1.514552        41.2131 
 132   0.0000       1.536189        41.8018 
 133   0.0000       1.543705        42.0064 
 134   0.0000       1.549859        42.1738 
 135   0.0000       1.566993        42.6401 
 136   0.0000       1.591109        43.2963 
 137   0.0000       1.622104        44.1397 
 138   0.0000       1.624377        44.2015 
 139   0.0000       1.639919        44.6245 
 140   0.0000       1.646051        44.7913 
 141   0.0000       1.668841        45.4115 
 142   0.0000       1.690131        45.9908 
 143   0.0000       1.692399        46.0525 
 144   0.0000       1.707180        46.4547 
 145   0.0000       1.731730        47.1228 
 146   0.0000       1.737039        47.2672 
 147   0.0000       1.760150        47.8961 
 148   0.0000       1.787032        48.6276 
 149   0.0000       1.803635        49.0794 
 150   0.0000       1.827907        49.7399 
 151   0.0000       1.830884        49.8209 
 152   0.0000       1.873680        50.9854 
 153   0.0000       1.886427        51.3323 
 154   0.0000       1.912454        52.0405 
 155   0.0000       1.921672        52.2913 
 156   0.0000       1.935276        52.6615 
 157   0.0000       1.993388        54.2428 
 158   0.0000       2.022831        55.0440 
 159   0.0000       2.035074        55.3772 
 160   0.0000       2.062687        56.1286 
 161   0.0000       2.076315        56.4994 
 162   0.0000       2.102816        57.2205 
 163   0.0000       2.139520        58.2193 
 164   0.0000       2.145316        58.3770 
 165   0.0000       2.176842        59.2349 
 166   0.0000       2.218462        60.3674 
 167   0.0000       2.229672        60.6724 
 168   0.0000       2.240073        60.9555 
 169   0.0000       2.244781        61.0836 
 170   0.0000       2.266538        61.6756 
 171   0.0000       2.285620        62.1949 
 172   0.0000       2.351529        63.9884 
 173   0.0000       2.386116        64.9295 
 174   0.0000       2.411663        65.6247 
 175   0.0000       2.421232        65.8851 
 176   0.0000       2.427041        66.0431 
 177   0.0000       2.464716        67.0683 
 178   0.0000       2.505787        68.1859 
 179   0.0000       2.525378        68.7190 
 180   0.0000       2.557235        69.5859 
 181   0.0000       2.565690        69.8160 
 182   0.0000       2.611404        71.0599 
 183   0.0000       2.659945        72.3808 
 184   0.0000       2.663348        72.4734 
 185   0.0000       2.692261        73.2601 
 186   0.0000       2.711157        73.7743 
 187   0.0000       2.732387        74.3520 
 188   0.0000       2.745163        74.6997 
 189   0.0000       2.778276        75.6007 
 190   0.0000       2.834913        77.1419 
 191   0.0000       2.851211        77.5854 
 192   0.0000       2.919822        79.4524 
 193   0.0000       2.935768        79.8863 
 194   0.0000       2.998712        81.5991 
 195   0.0000       3.058534        83.2269 
 196   0.0000       3.123357        84.9909 
 197   0.0000       3.207304        87.2752 
 198   0.0000       3.297140        89.7197 
 199   0.0000       3.358098        91.3785 
 200   0.0000       3.414464        92.9123 
 201   0.0000       3.471144        94.4546 
 202   0.0000       3.494206        95.0822 
 203   0.0000       3.525785        95.9415 
-------
TIMINGS
-------

Total SCF time: 0 days 0 hours 0 min 14 sec 

Total time                  ....      14.446 sec
Sum of individual times     ....      14.372 sec  ( 99.5%)

Fock matrix formation       ....      13.310 sec  ( 92.1%)
  Split-RI-J                ....       2.160 sec  ( 16.2% of F)
  Chain of spheres X        ....      10.260 sec  ( 77.1% of F)
  COS-X 1 center corr.      ....       0.000 sec  (  0.0% of F)
  XC integration            ....       0.862 sec  (  6.5% of F)
    Basis function eval.    ....       0.321 sec  ( 37.2% of XC)
    Density eval.           ....       0.144 sec  ( 16.8% of XC)
    XC-Functional eval.     ....       0.038 sec  (  4.5% of XC)
    XC-Potential eval.      ....       0.264 sec  ( 30.7% of XC)
Diagonalization             ....       0.017 sec  (  0.1%)
Density matrix formation    ....       0.007 sec  (  0.0%)
Population analysis         ....       0.000 sec  (  0.0%)
Initial guess               ....       0.009 sec  (  0.1%)
Orbital Transformation      ....       0.000 sec  (  0.0%)
Orbital Orthonormalization  ....       0.006 sec  (  0.0%)
DIIS solution               ....       0.004 sec  (  0.0%)
SOSCF solution              ....       0.111 sec  (  0.8%)
Grid generation             ....       0.915 sec  (  6.3%)


-------------------------------------------------------------------------------
                          DFT DISPERSION CORRECTION                            
                                                                               
                              DFTD3 V3.1  Rev 1                                
                          USING Becke-Johnson damping                          
-------------------------------------------------------------------------------
The B3LYP functional is recognized
Active option DFTDOPT                   ...         4   

molecular C6(AA) [au] = 4359.394229 


            DFT-D V3
 parameters
 s6 scaling factor         :     1.0000 
 a1 scaling factor         :     0.3981 
 s8 scaling factor         :     1.9889 
 a2 scaling factor         :     4.4211 
 ad hoc parameters k1-k3   :    16.0000     1.3333    -4.0000 

 Edisp/kcal,au: -19.573458052555  -0.031192287565 
 E6   /kcal   :  -9.606968082 
 E8   /kcal   :  -9.966489971 
 % E8         :  50.918391345 

-------------------------   ----------------
Dispersion correction           -0.031192288
-------------------------   ----------------


-------------------------   --------------------
FINAL SINGLE POINT ENERGY      -565.785352803126
-------------------------   --------------------

                                *** OPTIMIZATION RUN DONE ***

                            ***************************************
                            *     ORCA property calculations      *
                            ***************************************

                                    ---------------------
                                    Active property flags
                                    ---------------------
   (+) Dipole Moment


------------------------------------------------------------------------------
                       ORCA ELECTRIC PROPERTIES CALCULATION
------------------------------------------------------------------------------

Dipole Moment Calculation                       ... on
Quadrupole Moment Calculation                   ... off
Polarizability Calculation                      ... off
GBWName                                         ... AT-v/e/frag_30_c00001.gbw
Electron density file                           ... AT-v/e/frag_30_c00001.scfp.tmp
The origin for moment calculation is the CENTER OF MASS  = (-0.876577,  0.264661 -0.101484)

-------------
DIPOLE MOMENT
-------------
                                X             Y             Z
Electronic contribution:     -5.66057       0.54107      -0.83390
Nuclear contribution   :      5.92264      -0.92465       1.61525
                        -----------------------------------------
Total Dipole Moment    :      0.26207      -0.38358       0.78135
                        -----------------------------------------
Magnitude (a.u.)       :      0.90902
Magnitude (Debye)      :      2.31055


Timings for individual modules:

Sum of individual times         ...      259.753 sec (=   4.329 min)
GTO integral calculation        ...        6.876 sec (=   0.115 min)   2.6 %
SCF iterations                  ...      204.224 sec (=   3.404 min)  78.6 %
SCF Gradient evaluation         ...       46.883 sec (=   0.781 min)  18.0 %
Geometry relaxation             ...        1.771 sec (=   0.030 min)   0.7 %
                             ****ORCA TERMINATED NORMALLY****
TOTAL RUN TIME: 0 days 0 hours 4 minutes 21 seconds 694 msec
