
                                 *****************
                                 * O   R   C   A *
                                 *****************

           --- An Ab Initio, DFT and Semiempirical electronic structure package ---

                  #######################################################
                  #                        -***-                        #
                  #  Department of molecular theory and spectroscopy    #
                  #              Directorship: Frank Neese              #
                  # Max Planck Institute for Chemical Energy Conversion #
                  #                  D-45470 Muelheim/Ruhr              #
                  #                       Germany                       #
                  #                                                     #
                  #                  All rights reserved                #
                  #                        -***-                        #
                  #######################################################


                         Program Version 4.0.1.2 - RELEASE -


 With contributions from (in alphabetic order):
   Daniel Aravena         : Magnetic Properties
   Michael Atanasov       : Ab Initio Ligand Field Theory
   Ute Becker             : Parallelization
   Martin Brehm           : Molecular dynamics
   Dmytro Bykov           : SCF Hessian
   Vijay G. Chilkuri      : MRCI spin determinant printing
   Dipayan Datta          : RHF DLPNO-CCSD density
   Achintya Kumar Dutta   : EOM-CC, STEOM-CC
   Dmitry Ganyushin       : Spin-Orbit,Spin-Spin,Magnetic field MRCI
   Yang Guo               : DLPNO-NEVPT2, CIM, IAO-localization
   Andreas Hansen         : Spin unrestricted coupled pair/coupled cluster methods
   Lee Huntington         : MR-EOM, pCC
   Robert Izsak           : Overlap fitted RIJCOSX, COSX-SCS-MP3, EOM
   Christian Kollmar      : KDIIS, OOCD, Brueckner-CCSD(T), CCSD density
   Simone Kossmann        : Meta GGA functionals, TD-DFT gradient, OOMP2, MP2 Hessian
   Martin Krupicka        : AUTO-CI
   Dagmar Lenk            : GEPOL surface
   Dimitrios Liakos       : Extrapolation schemes; parallel MDCI
   Dimitrios Manganas     : ROCIS; embedding schemes
   Dimitrios Pantazis     : SARC Basis sets
   Taras Petrenko         : DFT Hessian,TD-DFT gradient, ASA, ECA, R-Raman, ABS, FL, XAS/XES, NRVS
   Peter Pinski           : DLPNO-MP2
   Christoph Reimann      : Effective Core Potentials
   Marius Retegan         : Local ZFS, SOC
   Christoph Riplinger    : Optimizer, TS searches, QM/MM, DLPNO-CCSD(T), (RO)-DLPNO pert. Triples
   Tobias Risthaus        : Range-separated hybrids, TD-DFT gradient, RPA, STAB
   Michael Roemelt        : Restricted open shell CIS
   Masaaki Saitow         : Open-shell DLPNO
   Barbara Sandhoefer     : DKH picture change effects
   Kantharuban Sivalingam : CASSCF convergence, NEVPT2, FIC-MRCI
   Georgi Stoychev        : AutoAux
   Boris Wezisla          : Elementary symmetry handling
   Frank Wennmohs         : Technical directorship


 We gratefully acknowledge several colleagues who have allowed us to
 interface, adapt or use parts of their codes:
   Stefan Grimme, W. Hujo, H. Kruse,             : VdW corrections, initial TS optimization,
                  C. Bannwarth                     DFT functionals, gCP, sTDA/sTD-DF
   Ed Valeev                                     : LibInt (2-el integral package), F12 methods
   Garnet Chan, S. Sharma, J. Yang, R. Olivares  : DMRG
   Ulf Ekstrom                                   : XCFun DFT Library
   Mihaly Kallay                                 : mrcc  (arbitrary order and MRCC methods)
   Andreas Klamt, Michael Diedenhofen            : otool_cosmo (COSMO solvation model)
   Jiri Pittner, Ondrej Demel                    : Mk-CCSD
   Frank Weinhold                                : gennbo (NPA and NBO analysis)
   Christopher J. Cramer and Donald G. Truhlar   : smd solvation model


 Your calculation uses the libint2 library for the computation of 2-el integrals
 For citations please refer to: http://libint.valeyev.net

 This ORCA versions uses:
   CBLAS   interface :  Fast vector & matrix operations
   LAPACKE interface :  Fast linear algebra routines
   SCALAPACK package :  Parallel linear algebra routines


Your calculation utilizes the atom-pairwise dispersion correction
with the Becke-Johnson damping scheme (D3BJ)
Cite in your paper:
S.Grimme, S.Ehrlich, L.Goerigk, J Comput Chem, (2011), 32, 1456–1465 
S.Grimme, J.Antony, S.Ehrlich and H.Krieg, J.Chem.Phys., 132, (2010), 154104 
   

Your calculation utilizes the basis: cc-pVDZ 
       H, B-Ne : Obtained from the ccRepo (grant-hill.group.shef.ac.uk/ccrepo) Feb. 2017
                 T. H. Dunning, Jr., J. Chem. Phys. 90, 1007 (1989)
            He : Obtained from the ccRepo (grant-hill.group.shef.ac.uk/ccrepo) Feb. 2017
                 D. E. Woon, T. H. Dunning, Jr., J. Chem. Phys. 100, 2975 (1994)
  Li-Be, Na-Mg : Obtained from the ccRepo (grant-hill.group.shef.ac.uk/ccrepo) Feb. 2017
                 B. P. Prascher, D. E. Woon, K. A. Peterson, T. H. Dunning, Jr., A. K. Wilson, Theor. Chem. Acc. 128, 69 (2011)
         Al-Ar : Obtained from the ccRepo (grant-hill.group.shef.ac.uk/ccrepo) Feb. 2017
                 D. E. Woon, T. H. Dunning, Jr., J. Chem. Phys. 98, 1358 (1993)
            Ca : Obtained from the Peterson Research Group Website (tyr0.chem.wsu.edu/~kipeters) Feb. 2017
                 J. Koput, K. A. Peterson, J. Phys. Chem. 106, 9595 (2002)
         Sc-Zn : Obtained from the ccRepo (grant-hill.group.shef.ac.uk/ccrepo) Feb. 2017
                 N. B. Balabanov, K. A. Peterson, J. Chem. Phys. 123, 064107 (2005)
                 N. B. Balabanov, K. A. Peterson, J. Chem. Phys. 125, 074110 (2006)
         Ga-Kr : Obtained from the ccRepo (grant-hill.group.shef.ac.uk/ccrepo) Feb. 2017
                 A. K. Wilson, D. E. Woon, K. A. Peterson, T. H. Dunning, Jr., J. Chem. Phys. 110, 7667 (1999)

Your calculation utilizes the auxiliary basis: def2/J
   F. Weigend, Phys. Chem. Chem. Phys. 8, 1057 (2006).

================================================================================
                                        WARNINGS
                       Please study these warnings very carefully!
================================================================================

Warning: TCutStore was < 0. Adjusted to Thresh (uncritical)

WARNING: Geometry Optimization
  ===> : Switching off AutoStart
         For restart on a previous wavefunction, please use MOREAD

INFO   : the flag for use of LIBINT has been found!

================================================================================
                                       INPUT FILE
================================================================================
NAME = AT-v/e/frag_27_c00001.com
|  1> %pal nprocs 6 end
|  2> %maxcore 1000
|  3> ! b3lyp TIGHTSCF nopop D3BJ
|  4> ! cc-pvdz def2/J RIJCOSX
|  5> ! Opt
|  6> 
|  7> %geom
|  8> maxiter 60
|  9> TolE 1e-4
| 10> TolRMSG 2e-3
| 11> TolMaxG 3e-3
| 12> TolRMSD 2e-2
| 13> TolMaxD 3e-2
| 14> end
| 15> 
| 16> *xyz 0 1
| 17> C 1.6301 -0.6925 -0.1409
| 18> N 0.9349 -1.846 -0.3245
| 19> N 1.0823 0.4702 -0.1287
| 20> C 1.8069 1.6133 0.0567
| 21> N 3.0773 1.701 0.2376
| 22> N -1.8841 0.4815 0.0057
| 23> C -2.4859 -0.7328 0.0522
| 24> O -1.8093 -1.7565 0.1063
| 25> C -3.9819 -0.7758 0.0351
| 26> C -4.5619 -2.161 0.0905
| 27> C -4.7694 0.3115 -0.0236
| 28> H 2.7066 -0.8892 -0.013
| 29> H 1.2861 -2.6842 0.121
| 30> H -0.0842 -1.7702 -0.2243
| 31> H 1.2229 2.5496 0.0505
| 32> H 3.5355 0.7959 0.2274
| 33> H -2.3623 1.3569 -0.1195
| 34> H -0.8654 0.4977 -0.0412
| 35> H -4.225 -2.7506 -0.7689
| 36> H -5.6567 -2.1503 0.0737
| 37> H -4.2517 -2.6694 1.0093
| 38> H -4.3969 1.3269 -0.059
| 39> H -5.8514 0.2075 -0.0317
| 40> *
| 41> 
| 42> 
| 43>                          ****END OF INPUT****
================================================================================

                       *****************************
                       * Geometry Optimization Run *
                       *****************************

Geometry optimization settings:
Update method            Update   .... BFGS
Choice of coordinates    CoordSys .... Redundant Internals
Initial Hessian          InHess   .... Almoef's Model

Convergence Tolerances:
Energy Change            TolE     ....  1.0000e-04 Eh
Max. Gradient            TolMAXG  ....  3.0000e-03 Eh/bohr
RMS Gradient             TolRMSG  ....  2.0000e-03 Eh/bohr
Max. Displacement        TolMAXD  ....  3.0000e-02 bohr
RMS Displacement         TolRMSD  ....  2.0000e-02 bohr

------------------------------------------------------------------------------
                        ORCA OPTIMIZATION COORDINATE SETUP
------------------------------------------------------------------------------

The optimization will be done in new redundant internal coordinates
Making redundant internal coordinates   ...  (new redundants) done
Evaluating the initial hessian          ...  (Almloef) done
Evaluating the coordinates              ...  done
Calculating the B-matrix                .... done
Calculating the G-matrix                .... done
Diagonalizing the G-matrix              .... done
Small eigenvalue found = 1.216e-02
The first mode is                       ....   36
The number of degrees of freedom        ....   63

    -----------------------------------------------------------------
                    Redundant Internal Coordinates


    -----------------------------------------------------------------
         Definition                    Initial Value    Approx d2E/dq
    -----------------------------------------------------------------
      1. B(N   1,C   0)                  1.3593         0.626509   
      2. B(N   2,C   0)                  1.2853         0.821959   
      3. B(C   3,N   2)                  1.3661         0.611061   
      4. B(N   4,C   3)                  1.2862         0.819348   
      5. B(C   6,N   5)                  1.3560         0.633947   
      6. B(O   7,C   6)                  1.2283         1.013647   
      7. B(C   8,C   6)                  1.4967         0.422164   
      8. B(C   9,C   8)                  1.5027         0.412913   
      9. B(C  10,C   8)                  1.3438         0.740343   
     10. B(H  11,C   0)                  1.1018         0.344859   
     11. B(H  12,N   1)                  1.0121         0.429348   
     12. B(H  13,N   1)                  1.0268         0.406787   
     13. B(H  13,O   7)                  1.7565         0.027869   
     14. B(H  14,C   3)                  1.1035         0.342654   
     15. B(H  15,N   4)                  1.0145         0.425577   
     16. B(H  16,N   5)                  1.0053         0.440206   
     17. B(H  17,N   2)                  1.9499         0.013700   
     18. B(H  17,N   5)                  1.0199         0.417242   
     19. B(H  18,C   9)                  1.0953         0.353147   
     20. B(H  19,C   9)                  1.0950         0.353570   
     21. B(H  20,C   9)                  1.0949         0.353627   
     22. B(H  21,C  10)                  1.0821         0.370637   
     23. B(H  22,C  10)                  1.0870         0.364068   
     24. A(N   2,C   0,H  11)          125.2264         0.365269   
     25. A(N   1,C   0,N   2)          123.4328         0.451634   
     26. A(N   1,C   0,H  11)          111.3399         0.348801   
     27. A(C   0,N   1,H  12)          117.7667         0.358830   
     28. A(C   0,N   1,H  13)          115.5810         0.355554   
     29. A(H  12,N   1,H  13)          111.2580         0.299910   
     30. A(C   0,N   2,H  17)          116.0338         0.220570   
     31. A(C   0,N   2,C   3)          122.1522         0.449591   
     32. A(C   3,N   2,H  17)          120.7941         0.212031   
     33. A(N   4,C   3,H  14)          117.7523         0.364669   
     34. A(N   2,C   3,N   4)          126.8742         0.449331   
     35. A(N   2,C   3,H  14)          115.3733         0.346963   
     36. A(C   3,N   4,H  15)          112.5721         0.375155   
     37. A(H  16,N   5,H  17)          117.1001         0.302327   
     38. A(C   6,N   5,H  17)          117.3269         0.357806   
     39. A(C   6,N   5,H  16)          124.9541         0.361086   
     40. A(O   7,C   6,C   8)          121.8128         0.439637   
     41. A(N   5,C   6,C   8)          117.9638         0.404299   
     42. A(N   5,C   6,O   7)          120.2233         0.470271   
     43. A(C   6,O   7,H  13)          122.6292         0.251020   
     44. A(C   6,C   8,C   9)          114.3203         0.377515   
     45. A(C   9,C   8,C  10)          121.4166         0.416630   
     46. A(C   6,C   8,C  10)          124.2631         0.418277   
     47. A(H  19,C   9,H  20)          107.4978         0.289182   
     48. A(H  18,C   9,H  20)          108.7428         0.289127   
     49. A(C   8,C   9,H  20)          110.4623         0.328726   
     50. A(H  18,C   9,H  19)          107.5030         0.289120   
     51. A(C   8,C   9,H  19)          112.1061         0.328717   
     52. A(C   8,C   9,H  18)          110.3986         0.328652   
     53. A(H  21,C  10,H  22)          115.6049         0.292666   
     54. A(C   8,C  10,H  22)          120.4130         0.364403   
     55. A(C   8,C  10,H  21)          123.9810         0.365520   
     56. A(N   1,H  13,O   7)          173.5448         0.202574   
     57. L(N   2,H  17,N   5,C   6, 2) 179.9400         0.186268   
     58. L(N   2,H  17,N   5,C   6, 1) 178.2810         0.186268   
     59. D(H  13,N   1,C   0,N   2)    -14.5502         0.031836   
     60. D(H  13,N   1,C   0,H  11)    165.7945         0.031836   
     61. D(H  12,N   1,C   0,N   2)   -149.4866         0.031836   
     62. D(H  12,N   1,C   0,H  11)     30.8580         0.031836   
     63. D(C   3,N   2,C   0,H  11)     -0.3204         0.057990   
     64. D(C   3,N   2,C   0,N   1)   -179.9274         0.057990   
     65. D(H  17,N   2,C   0,N   1)     11.5482         0.057990   
     66. D(H  17,N   2,C   0,H  11)   -168.8447         0.057990   
     67. D(H  14,C   3,N   2,H  17)    -11.8076         0.030168   
     68. D(N   4,C   3,N   2,H  17)    167.9937         0.030168   
     69. D(H  14,C   3,N   2,C   0)   -179.7963         0.030168   
     70. D(N   4,C   3,N   2,C   0)      0.0050         0.030168   
     71. D(H  15,N   4,C   3,H  14)   -179.9016         0.052041   
     72. D(H  15,N   4,C   3,N   2)      0.3013         0.052041   
     73. D(C   6,N   5,N   2,C   0)      0.2825         0.001500   
     74. D(H  16,N   5,N   2,C   3)     20.3060         0.001500   
     75. D(H  16,N   5,N   2,C   0)   -171.0888         0.001500   
     76. D(C   6,N   5,N   2,C   3)   -168.3227         0.001500   
     77. D(C   8,C   6,N   5,H  17)   -176.2625         0.032659   
     78. D(C   8,C   6,N   5,H  16)     -5.5715         0.032659   
     79. D(O   7,C   6,N   5,H  17)      3.7293         0.032659   
     80. D(O   7,C   6,N   5,H  16)    174.4203         0.032659   
     81. D(H  13,O   7,C   6,C   8)    166.2045         0.084521   
     82. D(H  13,O   7,C   6,N   5)    -13.7870         0.084521   
     83. D(C  10,C   8,C   6,O   7)   -179.9813         0.012193   
     84. D(C  10,C   8,C   6,N   5)      0.0104         0.012193   
     85. D(C   9,C   8,C   6,O   7)      0.0502         0.012193   
     86. D(C   9,C   8,C   6,N   5)   -179.9581         0.012193   
     87. D(H  19,C   9,C   8,C   6)   -179.8660         0.012621   
     88. D(H  18,C   9,C   8,C  10)    119.9915         0.012621   
     89. D(H  18,C   9,C   8,C   6)    -60.0389         0.012621   
     90. D(H  20,C   9,C   8,C  10)   -119.6995         0.012621   
     91. D(H  20,C   9,C   8,C   6)     60.2701         0.012621   
     92. D(H  19,C   9,C   8,C  10)      0.1644         0.012621   
     93. D(H  22,C  10,C   8,C   9)      0.0277         0.038992   
     94. D(H  22,C  10,C   8,C   6)   -179.9387         0.038992   
     95. D(H  21,C  10,C   8,C   9)    179.6266         0.038992   
     96. D(H  21,C  10,C   8,C   6)     -0.3398         0.038992   
     97. D(N   1,H  13,O   7,C   6)    136.0415         0.001871   
     98. D(O   7,H  13,N   1,H  12)     23.7916         0.185058   
     99. D(O   7,H  13,N   1,C   0)   -113.9782         0.185058   
    -----------------------------------------------------------------

Number of atoms                         .... 23
Number of degrees of freedom            .... 99

         *************************************************************
         *                GEOMETRY OPTIMIZATION CYCLE   1            *
         *************************************************************
---------------------------------
CARTESIAN COORDINATES (ANGSTROEM)
---------------------------------
  C      1.630100   -0.692500   -0.140900
  N      0.934900   -1.846000   -0.324500
  N      1.082300    0.470200   -0.128700
  C      1.806900    1.613300    0.056700
  N      3.077300    1.701000    0.237600
  N     -1.884100    0.481500    0.005700
  C     -2.485900   -0.732800    0.052200
  O     -1.809300   -1.756500    0.106300
  C     -3.981900   -0.775800    0.035100
  C     -4.561900   -2.161000    0.090500
  C     -4.769400    0.311500   -0.023600
  H      2.706600   -0.889200   -0.013000
  H      1.286100   -2.684200    0.121000
  H     -0.084200   -1.770200   -0.224300
  H      1.222900    2.549600    0.050500
  H      3.535500    0.795900    0.227400
  H     -2.362300    1.356900   -0.119500
  H     -0.865400    0.497700   -0.041200
  H     -4.225000   -2.750600   -0.768900
  H     -5.656700   -2.150300    0.073700
  H     -4.251700   -2.669400    1.009300
  H     -4.396900    1.326900   -0.059000
  H     -5.851400    0.207500   -0.031700

----------------------------
CARTESIAN COORDINATES (A.U.)
----------------------------
  NO LB      ZA    FRAG     MASS         X           Y           Z
   0 C     6.0000    0    12.011    3.080443   -1.308635   -0.266262
   1 N     7.0000    0    14.007    1.766705   -3.488434   -0.613216
   2 N     7.0000    0    14.007    2.045251    0.888549   -0.243208
   3 C     6.0000    0    12.011    3.414546    3.048695    0.107147
   4 N     7.0000    0    14.007    5.815254    3.214424    0.448999
   5 N     7.0000    0    14.007   -3.560433    0.909903    0.010771
   6 C     6.0000    0    12.011   -4.697670   -1.384791    0.098644
   7 O     8.0000    0    15.999   -3.419081   -3.319304    0.200878
   8 C     6.0000    0    12.011   -7.524700   -1.466050    0.066329
   9 C     6.0000    0    12.011   -8.620742   -4.083698    0.171020
  10 C     6.0000    0    12.011   -9.012860    0.588650   -0.044598
  11 H     1.0000    0     1.008    5.114733   -1.680344   -0.024566
  12 H     1.0000    0     1.008    2.430377   -5.072403    0.228657
  13 H     1.0000    0     1.008   -0.159115   -3.345193   -0.423866
  14 H     1.0000    0     1.008    2.310946    4.818046    0.095431
  15 H     1.0000    0     1.008    6.681127    1.504033    0.429724
  16 H     1.0000    0     1.008   -4.464100    2.564169   -0.225822
  17 H     1.0000    0     1.008   -1.635369    0.940517   -0.077857
  18 H     1.0000    0     1.008   -7.984093   -5.197881   -1.453010
  19 H     1.0000    0     1.008  -10.689614   -4.063478    0.139273
  20 H     1.0000    0     1.008   -8.034549   -5.044435    1.907301
  21 H     1.0000    0     1.008   -8.308937    2.507478   -0.111494
  22 H     1.0000    0     1.008  -11.057544    0.392118   -0.059904

--------------------------------
INTERNAL COORDINATES (ANGSTROEM)
--------------------------------
 C      0   0   0     0.000000000000     0.00000000     0.00000000
 N      1   0   0     1.359255034936     0.00000000     0.00000000
 N      1   2   0     1.285342355172   123.43278590     0.00000000
 C      3   1   2     1.366051217927   122.15223451   180.07256910
 N      4   3   1     1.286208482323   126.87416031     0.00000000
 N      3   1   2     2.969464599890   115.44357445    11.56546256
 C      6   3   1     1.356042027372   116.19821777     0.28250965
 O      7   6   3     1.228281751065   120.22331904     3.70231490
 C      7   6   3     1.496715540776   117.96383754   183.71049949
 C      9   7   6     1.502746884874   114.32025150   180.04187048
 C      9   7   6     1.343809223811   124.26310514     0.00000000
 H      1   2   3     1.101772004545   111.33986554   180.34464676
 H      2   1   3     1.012121993635   117.76670305   210.51336119
 H      2   1   3     1.026815704009   115.58098833   345.44982502
 H      4   3   1     1.103518069630   115.37329140   180.20371305
 H      5   4   3     1.014523183570   112.57205378     0.30130204
 H      6   3   1     1.005323549908   118.21970471   188.91119929
 H      6   3   1     1.019907711511     1.12892153   181.50111094
 H     10   9   7     1.095307322170   110.39859406   299.96105323
 H     10   9   7     1.094981173354   112.10609994   180.13396346
 H     10   9   7     1.094937459401   110.46227579    60.27006910
 H     11   9   7     1.082149051656   123.98095785   359.66015081
 H     11   9   7     1.087016839796   120.41300074   180.06127422

---------------------------
INTERNAL COORDINATES (A.U.)
---------------------------
 C      0   0   0     0.000000000000     0.00000000     0.00000000
 N      1   0   0     2.568619762183     0.00000000     0.00000000
 N      1   2   0     2.428945039605   123.43278590     0.00000000
 C      3   1   2     2.581462686792   122.15223451   180.07256910
 N      4   3   1     2.430581782717   126.87416031     0.00000000
 N      3   1   2     5.611474858166   115.44357445    11.56546256
 C      6   3   1     2.562548057821   116.19821777     0.28250965
 O      7   6   3     2.321116124807   120.22331904     3.70231490
 C      7   6   3     2.828382472450   117.96383754   183.71049949
 C      9   7   6     2.839780061016   114.32025150   180.04187048
 C      9   7   6     2.539431409240   124.26310514     0.00000000
 H      1   2   3     2.082047350612   111.33986554   180.34464676
 H      2   1   3     1.912633382089   117.76670305   210.51336119
 H      2   1   3     1.940400470587   115.58098833   345.44982502
 H      4   3   1     2.085346935434   115.37329140   180.20371305
 H      5   4   3     1.917170973460   112.57205378     0.30130204
 H      6   3   1     1.899786185308   118.21970471   188.91119929
 H      6   3   1     1.927346256631     1.12892153   181.50111094
 H     10   9   7     2.069830871381   110.39859406   299.96105323
 H     10   9   7     2.069214539439   112.10609994   180.13396346
 H     10   9   7     2.069131932040   110.46227579    60.27006910
 H     11   9   7     2.044965343712   123.98095785   359.66015081
 H     11   9   7     2.054164130175   120.41300074   180.06127422

---------------------
BASIS SET INFORMATION
---------------------
There are 4 groups of distinct atoms

 Group   1 Type C   : 17s4p1d contracted to 3s2p1d pattern {881/31/1}
 Group   2 Type N   : 17s4p1d contracted to 3s2p1d pattern {881/31/1}
 Group   3 Type O   : 17s4p1d contracted to 3s2p1d pattern {881/31/1}
 Group   4 Type H   : 4s1p contracted to 2s1p pattern {31/1}

Atom   0C    basis set group =>   1
Atom   1N    basis set group =>   2
Atom   2N    basis set group =>   2
Atom   3C    basis set group =>   1
Atom   4N    basis set group =>   2
Atom   5N    basis set group =>   2
Atom   6C    basis set group =>   1
Atom   7O    basis set group =>   3
Atom   8C    basis set group =>   1
Atom   9C    basis set group =>   1
Atom  10C    basis set group =>   1
Atom  11H    basis set group =>   4
Atom  12H    basis set group =>   4
Atom  13H    basis set group =>   4
Atom  14H    basis set group =>   4
Atom  15H    basis set group =>   4
Atom  16H    basis set group =>   4
Atom  17H    basis set group =>   4
Atom  18H    basis set group =>   4
Atom  19H    basis set group =>   4
Atom  20H    basis set group =>   4
Atom  21H    basis set group =>   4
Atom  22H    basis set group =>   4
-------------------------------
AUXILIARY BASIS SET INFORMATION
-------------------------------
There are 4 groups of distinct atoms

 Group   1 Type C   : 12s5p4d2f1g contracted to 6s4p3d1f1g pattern {711111/2111/211/2/1}
 Group   2 Type N   : 12s5p4d2f1g contracted to 6s4p3d1f1g pattern {711111/2111/211/2/1}
 Group   3 Type O   : 12s5p4d2f1g contracted to 6s4p3d1f1g pattern {711111/2111/211/2/1}
 Group   4 Type H   : 5s2p1d contracted to 3s1p1d pattern {311/2/1}

Atom   0C    basis set group =>   1
Atom   1N    basis set group =>   2
Atom   2N    basis set group =>   2
Atom   3C    basis set group =>   1
Atom   4N    basis set group =>   2
Atom   5N    basis set group =>   2
Atom   6C    basis set group =>   1
Atom   7O    basis set group =>   3
Atom   8C    basis set group =>   1
Atom   9C    basis set group =>   1
Atom  10C    basis set group =>   1
Atom  11H    basis set group =>   4
Atom  12H    basis set group =>   4
Atom  13H    basis set group =>   4
Atom  14H    basis set group =>   4
Atom  15H    basis set group =>   4
Atom  16H    basis set group =>   4
Atom  17H    basis set group =>   4
Atom  18H    basis set group =>   4
Atom  19H    basis set group =>   4
Atom  20H    basis set group =>   4
Atom  21H    basis set group =>   4
Atom  22H    basis set group =>   4


           ************************************************************
           *        Program running with 6 parallel MPI-processes     *
           *              working on a common directory               *
           ************************************************************
------------------------------------------------------------------------------
                           ORCA GTO INTEGRAL CALCULATION
                           -- RI-GTO INTEGRALS CHOSEN --
------------------------------------------------------------------------------

                         BASIS SET STATISTICS AND STARTUP INFO

Gaussian basis set:
 # of primitive gaussian shells          ...  302
 # of primitive gaussian functions       ...  458
 # of contracted shells                  ...  102
 # of contracted basis functions         ...  214
 Highest angular momentum                ...    2
 Maximum contraction depth               ...    8
Auxiliary gaussian basis set:
 # of primitive gaussian shells          ...  360
 # of primitive gaussian functions       ...  962
 # of contracted shells                  ...  225
 # of contracted aux-basis functions     ...  671
 Highest angular momentum                ...    4
 Maximum contraction depth               ...    7
Ratio of auxiliary to basis functions    ...  3.14
Integral package used                  ... LIBINT
 One Electron integrals                  ... done
 Ordering auxiliary basis shells         ... done
 Integral threshhold             Thresh  ...  2.500e-11
 Primitive cut-off               TCut    ...  2.500e-12
 Pre-screening matrix                    ... done
 Shell pair data                         ... 
 Ordering of the shell pairs             ... done (   0.001 sec) 4417 of 5253 pairs
 Determination of significant pairs      ... done (   0.000 sec)
 Creation of shell pair data             ... done (   0.002 sec)
 Storage of shell pair data              ... done (   0.003 sec)
 Shell pair data done in (   0.007 sec)
 Computing two index integrals           ... done
 Cholesky decomposition of the V-matrix  ... done


Timings:
 Total evaluation time                   ...   0.446 sec (  0.007 min)
 One electron matrix time                ...   0.060 sec (  0.001 min) = 13.6%
 Schwartz matrix evaluation time         ...   0.317 sec (  0.005 min) = 71.0%
 Two index repulsion integral time       ...   0.024 sec (  0.000 min) =  5.5%
 Cholesky decomposition of V             ...   0.018 sec (  0.000 min) =  3.9%
 Three index repulsion integral time     ...   0.000 sec (  0.000 min) =  0.0%



           ************************************************************
           *        Program running with 6 parallel MPI-processes     *
           *              working on a common directory               *
           ************************************************************
-------------------------------------------------------------------------------
                                 ORCA SCF
-------------------------------------------------------------------------------

------------
SCF SETTINGS
------------
Hamiltonian:
 Density Functional     Method          .... DFT(GTOs)
 Exchange Functional    Exchange        .... B88
   X-Alpha parameter    XAlpha          ....  0.666667
   Becke's b parameter  XBeta           ....  0.004200
 Correlation Functional Correlation     .... LYP
 LDA part of GGA corr.  LDAOpt          .... VWN-5
 Gradients option       PostSCFGGA      .... off
 Hybrid DFT is turned on
   Fraction HF Exchange ScalHFX         ....  0.200000
   Scaling of DF-GGA-X  ScalDFX         ....  0.720000
   Scaling of DF-GGA-C  ScalDFC         ....  0.810000
   Scaling of DF-LDA-C  ScalLDAC        ....  1.000000
   Perturbative correction              ....  0.000000
   NL short-range parameter             ....  4.800000
 RI-approximation to the Coulomb term is turned on
   Number of auxiliary basis functions  .... 671
   RIJ-COSX (HFX calculated with COS-X)).... on


General Settings:
 Integral files         IntName         .... AT-v/e/frag_27_c00001
 Hartree-Fock type      HFTyp           .... RHF
 Total Charge           Charge          ....    0
 Multiplicity           Mult            ....    1
 Number of Electrons    NEL             ....   84
 Basis Dimension        Dim             ....  214
 Nuclear Repulsion      ENuc            ....    581.4066207689 Eh

Convergence Acceleration:
 DIIS                   CNVDIIS         .... on
   Start iteration      DIISMaxIt       ....    12
   Startup error        DIISStart       ....  0.200000
   # of expansion vecs  DIISMaxEq       ....     5
   Bias factor          DIISBfac        ....   1.050
   Max. coefficient     DIISMaxC        ....  10.000
 Newton-Raphson         CNVNR           .... off
 SOSCF                  CNVSOSCF        .... on
   Start iteration      SOSCFMaxIt      ....   150
   Startup grad/error   SOSCFStart      ....  0.003300
 Level Shifting         CNVShift        .... on
   Level shift para.    LevelShift      ....    0.2500
   Turn off err/grad.   ShiftErr        ....    0.0010
 Zerner damping         CNVZerner       .... off
 Static damping         CNVDamp         .... on
   Fraction old density DampFac         ....    0.7000
   Max. Damping (<1)    DampMax         ....    0.9800
   Min. Damping (>=0)   DampMin         ....    0.0000
   Turn off err/grad.   DampErr         ....    0.1000
 Fernandez-Rico         CNVRico         .... off

SCF Procedure:
 Maximum # iterations   MaxIter         ....   125
 SCF integral mode      SCFMode         .... Direct
   Integral package                     .... LIBINT
 Reset frequeny         DirectResetFreq ....    20
 Integral Threshold     Thresh          ....  2.500e-11 Eh
 Primitive CutOff       TCut            ....  2.500e-12 Eh

Convergence Tolerance:
 Convergence Check Mode ConvCheckMode   .... Total+1el-Energy
 Convergence forced     ConvForced      .... 0
 Energy Change          TolE            ....  1.000e-08 Eh
 1-El. energy change                    ....  1.000e-05 Eh
 Orbital Gradient       TolG            ....  1.000e-05
 Orbital Rotation angle TolX            ....  1.000e-05
 DIIS Error             TolErr          ....  5.000e-07


Diagonalization of the overlap matrix:
Smallest eigenvalue                        ... 1.681e-03
Time for diagonalization                   ...    0.012 sec
Threshold for overlap eigenvalues          ... 1.000e-08
Number of eigenvalues below threshold      ... 0
Time for construction of square roots      ...    0.006 sec
Total time needed                          ...    0.018 sec

-------------------
DFT GRID GENERATION
-------------------

General Integration Accuracy     IntAcc      ...  4.340
Radial Grid Type                 RadialGrid  ... Gauss-Chebyshev
Angular Grid (max. acc.)         AngularGrid ... Lebedev-110
Angular grid pruning method      GridPruning ... 3 (G Style)
Weight generation scheme         WeightScheme... Becke
Basis function cutoff            BFCut       ...    1.0000e-11
Integration weight cutoff        WCut        ...    1.0000e-14
Grids for H and He will be reduced by one unit

# of grid points (after initial pruning)     ...  27988 (   0.0 sec)
# of grid points (after weights+screening)   ...  25850 (   0.0 sec)
nearest neighbour list constructed           ...    0.0 sec
Grid point re-assignment to atoms done       ...    0.0 sec
Grid point division into batches done        ...    0.0 sec
Reduced shell lists constructed in    0.1 sec

Total number of grid points                  ...    25850
Total number of batches                      ...      418
Average number of points per batch           ...       61
Average number of grid points per atom       ...     1124
Average number of shells per batch           ...    68.41 (67.07%)
Average number of basis functions per batch  ...   137.51 (64.26%)
Average number of large shells per batch     ...    46.86 (68.50%)
Average number of large basis fcns per batch ...    95.73 (69.62%)
Maximum spatial batch extension              ...   9.92,  8.06, 22.47 au
Average spatial batch extension              ...   0.33,  0.34,  0.55 au

Time for grid setup =    0.160 sec

------------------------------
INITIAL GUESS: MODEL POTENTIAL
------------------------------
Loading Hartree-Fock densities                     ... done
Calculating cut-offs                               ... done
Setting up the integral package                    ... done
Initializing the effective Hamiltonian             ... done
Starting the Coulomb interaction                   ... done (   0.1 sec)
Reading the grid                                   ... done
Mapping shells                                     ... done
Starting the XC term evaluation                    ... done (   0.1 sec)
  promolecular density results
     # of electrons  =     84.020869998
     EX              =    -68.878508381
     EC              =     -2.831090900
     EX+EC           =    -71.709599282
Transforming the Hamiltonian                       ... done (   0.0 sec)
Diagonalizing the Hamiltonian                      ... done (   0.0 sec)
Back transforming the eigenvectors                 ... done (   0.0 sec)
Now organizing SCF variables                       ... done
                      ------------------
                      INITIAL GUESS DONE (   0.5 sec)
                      ------------------
--------------------
COSX GRID GENERATION
--------------------

General Integration Accuracy     IntAcc      ...  3.340
Radial Grid Type                 RadialGrid  ... Gauss-Chebyshev
Angular Grid (max. acc.)         AngularGrid ... Lebedev-50
Angular grid pruning method      GridPruning ... 3 (G Style)
Weight generation scheme         WeightScheme... Becke
Basis function cutoff            BFCut       ...    1.0000e-11
Integration weight cutoff        WCut        ...    1.0000e-14
Grids for H and He will be reduced by one unit

# of grid points (after initial pruning)     ...  10164 (   0.0 sec)
# of grid points (after weights+screening)   ...   9465 (   0.0 sec)
nearest neighbour list constructed           ...    0.0 sec
Grid point re-assignment to atoms done       ...    0.0 sec
Grid point division into batches done        ...    0.0 sec
Reduced shell lists constructed in    0.0 sec

Total number of grid points                  ...     9465
Total number of batches                      ...      158
Average number of points per batch           ...       59
Average number of grid points per atom       ...      412
Average number of shells per batch           ...    69.86 (68.49%)
Average number of basis functions per batch  ...   141.14 (65.95%)
Average number of large shells per batch     ...    48.39 (69.27%)
Average number of large basis fcns per batch ...    99.18 (70.27%)
Maximum spatial batch extension              ...   5.97,  8.16, 16.93 au
Average spatial batch extension              ...   0.38,  0.43,  0.78 au

Overlap Fitting                  UseSFitting ... on
Constructing numerical overlap ... done (      0.0 sec)
Inverting numerical overlap    ... done (      0.0 sec)
Obtaining analytic overlap     ... done (      0.0 sec)
Final contraction and storage  ... done (      0.0 sec)


General Integration Accuracy     IntAcc      ...  3.670
Radial Grid Type                 RadialGrid  ... Gauss-Chebyshev
Angular Grid (max. acc.)         AngularGrid ... Lebedev-50
Angular grid pruning method      GridPruning ... 3 (G Style)
Weight generation scheme         WeightScheme... Becke
Basis function cutoff            BFCut       ...    1.0000e-11
Integration weight cutoff        WCut        ...    1.0000e-14
Grids for H and He will be reduced by one unit

# of grid points (after initial pruning)     ...  13022 (   0.0 sec)
# of grid points (after weights+screening)   ...  12100 (   0.0 sec)
nearest neighbour list constructed           ...    0.0 sec
Grid point re-assignment to atoms done       ...    0.0 sec
Grid point division into batches done        ...    0.0 sec
Reduced shell lists constructed in    0.0 sec

Total number of grid points                  ...    12100
Total number of batches                      ...      202
Average number of points per batch           ...       59
Average number of grid points per atom       ...      526
Average number of shells per batch           ...    69.86 (68.49%)
Average number of basis functions per batch  ...   141.06 (65.91%)
Average number of large shells per batch     ...    47.97 (68.67%)
Average number of large basis fcns per batch ...    98.14 (69.58%)
Maximum spatial batch extension              ...   5.97,  6.81, 24.71 au
Average spatial batch extension              ...   0.36,  0.39,  0.78 au

Overlap Fitting                  UseSFitting ... on
Constructing numerical overlap ... done (      0.0 sec)
Inverting numerical overlap    ... done (      0.0 sec)
Obtaining analytic overlap     ... done (      0.0 sec)
Final contraction and storage  ... done (      0.0 sec)


General Integration Accuracy     IntAcc      ...  4.010
Radial Grid Type                 RadialGrid  ... Gauss-Chebyshev
Angular Grid (max. acc.)         AngularGrid ... Lebedev-110
Angular grid pruning method      GridPruning ... 3 (G Style)
Weight generation scheme         WeightScheme... Becke
Basis function cutoff            BFCut       ...    1.0000e-11
Integration weight cutoff        WCut        ...    1.0000e-14
Grids for H and He will be reduced by one unit

# of grid points (after initial pruning)     ...  24118 (   0.0 sec)
# of grid points (after weights+screening)   ...  22315 (   0.0 sec)
nearest neighbour list constructed           ...    0.0 sec
Grid point re-assignment to atoms done       ...    0.0 sec
Grid point division into batches done        ...    0.0 sec
Reduced shell lists constructed in    0.1 sec

Total number of grid points                  ...    22315
Total number of batches                      ...      357
Average number of points per batch           ...       62
Average number of grid points per atom       ...      970
Average number of shells per batch           ...    68.85 (67.50%)
Average number of basis functions per batch  ...   138.46 (64.70%)
Average number of large shells per batch     ...    47.13 (68.45%)
Average number of large basis fcns per batch ...    95.98 (69.32%)
Maximum spatial batch extension              ...   9.57,  8.05, 21.55 au
Average spatial batch extension              ...   0.34,  0.34,  0.55 au

Overlap Fitting                  UseSFitting ... on
Constructing numerical overlap ... done (      0.0 sec)
Inverting numerical overlap    ... done (      0.0 sec)
Obtaining analytic overlap     ... done (      0.0 sec)
Final contraction and storage  ... done (      0.0 sec)

Time for X-Grid setup             =    0.431 sec
--------------
SCF ITERATIONS
--------------
ITER       Energy         Delta-E        Max-DP      RMS-DP      [F,P]     Damp
               ***  Starting incremental Fock matrix formation  ***
  0   -529.3463714737   0.000000000000 0.10130514  0.00234934  0.2787188 0.7000
  1   -529.5635572548  -0.217185781081 0.06723783  0.00158418  0.1189365 0.7000
                               ***Turning on DIIS***
  2   -529.6436941502  -0.080136895350 0.09256778  0.00235841  0.0425834 0.0000
  3   -529.7659744239  -0.122280273697 0.04615649  0.00109915  0.0775515 0.0000
  4   -529.7968512096  -0.030876785747 0.01158326  0.00034370  0.0144373 0.0000
  5   -529.7988460564  -0.001994846773 0.00499783  0.00012323  0.0068012 0.0000
                      *** Initiating the SOSCF procedure ***
                           *** Shutting down DIIS ***
                      *** Re-Reading the Fockian *** 
                      *** Removing any level shift *** 
ITER      Energy       Delta-E        Grad      Rot      Max-DP    RMS-DP
  6   -529.79900511  -0.0001590525  0.000626  0.000626  0.001849  0.000045
               *** Restarting incremental Fock matrix formation ***
  7   -529.79903087  -0.0000257597  0.000233  0.000788  0.001372  0.000031
  8   -529.79903174  -0.0000008679  0.000304  0.000813  0.000749  0.000015
  9   -529.79903352  -0.0000017849  0.000130  0.000357  0.000431  0.000011
 10   -529.79903373  -0.0000002070  0.000057  0.000074  0.000146  0.000004
 11   -529.79903396  -0.0000002299  0.000034  0.000144  0.000102  0.000003
 12   -529.79903396  -0.0000000006  0.000035  0.000061  0.000051  0.000001
 13   -529.79903398  -0.0000000167  0.000005  0.000022  0.000032  0.000001
 14   -529.79903398  -0.0000000066  0.000005  0.000007  0.000013  0.000000
                  ***Gradient check signals convergence***
              ***Rediagonalizing the Fockian in SOSCF/NRSCF***

               *****************************************************
               *                     SUCCESS                       *
               *           SCF CONVERGED AFTER  15 CYCLES          *
               *****************************************************

Setting up the final grid:

General Integration Accuracy     IntAcc      ...  4.670
Radial Grid Type                 RadialGrid  ... Gauss-Chebyshev
Angular Grid (max. acc.)         AngularGrid ... Lebedev-302
Angular grid pruning method      GridPruning ... 3 (G Style)
Weight generation scheme         WeightScheme... Becke
Basis function cutoff            BFCut       ...    1.0000e-11
Integration weight cutoff        WCut        ...    1.0000e-14
Grids for H and He will be reduced by one unit

# of grid points (after initial pruning)     ... 109060 (   0.0 sec)
# of grid points (after weights+screening)   ...  99197 (   0.1 sec)
nearest neighbour list constructed           ...    0.0 sec
Grid point re-assignment to atoms done       ...    0.0 sec
Grid point division into batches done        ...    0.4 sec
Reduced shell lists constructed in    0.7 sec

Total number of grid points                  ...    99197
Total number of batches                      ...     1562
Average number of points per batch           ...       63
Average number of grid points per atom       ...     4313
Average number of shells per batch           ...    62.72 (61.49%)
Average number of basis functions per batch  ...   125.50 (58.64%)
Average number of large shells per batch     ...    42.65 (68.00%)
Average number of large basis fcns per batch ...    86.71 (69.09%)
Maximum spatial batch extension              ...  12.92, 12.62, 18.63 au
Average spatial batch extension              ...   0.26,  0.26,  0.32 au

Final grid set up in    0.9 sec
Final integration                            ... done (   0.4 sec)
Change in XC energy                          ...     0.000508874
Integrated number of electrons               ...    83.999758821
Previous integrated no of electrons          ...    84.010106886
Old exchange energy                            =    -14.009219236 Eh
New exchange energy                            =    -14.008923533 Eh
Exchange energy change after final integration =      0.000295703 Eh
Total energy after final integration           =   -529.798229405 Eh
Final COS-X integration done in                =     3.549 sec

----------------
TOTAL SCF ENERGY
----------------

Total Energy       :         -529.79822940 Eh          -14416.54274 eV

Components:
Nuclear Repulsion  :          581.40662077 Eh           15820.87847 eV
Electronic Energy  :        -1111.20485017 Eh          -30237.42121 eV
One Electron Energy:        -1872.01307934 Eh          -50940.06563 eV
Two Electron Energy:          760.80822917 Eh           20702.64442 eV

Virial components:
Potential Energy   :        -1056.48355345 Eh          -28748.37903 eV
Kinetic Energy     :          526.68532404 Eh           14331.83628 eV
Virial Ratio       :            2.00591037


DFT components:
N(Alpha)           :       41.999879410691 electrons
N(Beta)            :       41.999879410691 electrons
N(Total)           :       83.999758821383 electrons
E(X)               :      -55.679184434230 Eh       
E(C)               :       -3.346735774533 Eh       
E(XC)              :      -59.025920208763 Eh       

---------------
SCF CONVERGENCE
---------------

  Last Energy change         ...    5.9390e-10  Tolerance :   1.0000e-08
  Last MAX-Density change    ...    1.5839e-13  Tolerance :   1.0000e-07
  Last RMS-Density change    ...    1.0054e-15  Tolerance :   5.0000e-09
  Last Orbital Gradient      ...    2.0627e-06  Tolerance :   1.0000e-05
  Last Orbital Rotation      ...    6.6189e-06  Tolerance :   1.0000e-05

             **** THE GBW FILE WAS UPDATED (AT-v/e/frag_27_c00001.gbw) ****
             **** DENSITY FILE WAS UPDATED (AT-v/e/frag_27_c00001.scfp.tmp) ****
             **** ENERGY FILE WAS UPDATED (AT-v/e/frag_27_c00001.en.tmp) ****
----------------
ORBITAL ENERGIES
----------------

  NO   OCC          E(Eh)            E(eV) 
   0   2.0000     -19.112472      -520.0768 
   1   2.0000     -14.345931      -390.3726 
   2   2.0000     -14.333725      -390.0405 
   3   2.0000     -14.311647      -389.4397 
   4   2.0000     -14.288258      -388.8033 
   5   2.0000     -10.291092      -280.0348 
   6   2.0000     -10.274957      -279.5958 
   7   2.0000     -10.239055      -278.6189 
   8   2.0000     -10.210129      -277.8317 
   9   2.0000     -10.200731      -277.5760 
  10   2.0000     -10.183932      -277.1189 
  11   2.0000      -1.042465       -28.3669 
  12   2.0000      -0.968654       -26.3584 
  13   2.0000      -0.907874       -24.7045 
  14   2.0000      -0.895231       -24.3605 
  15   2.0000      -0.833333       -22.6761 
  16   2.0000      -0.807953       -21.9855 
  17   2.0000      -0.693897       -18.8819 
  18   2.0000      -0.666459       -18.1353 
  19   2.0000      -0.637493       -17.3471 
  20   2.0000      -0.582075       -15.8391 
  21   2.0000      -0.559594       -15.2273 
  22   2.0000      -0.548910       -14.9366 
  23   2.0000      -0.521271       -14.1845 
  24   2.0000      -0.492274       -13.3955 
  25   2.0000      -0.488179       -13.2840 
  26   2.0000      -0.454357       -12.3637 
  27   2.0000      -0.441935       -12.0257 
  28   2.0000      -0.434298       -11.8179 
  29   2.0000      -0.419160       -11.4059 
  30   2.0000      -0.411520       -11.1980 
  31   2.0000      -0.402747       -10.9593 
  32   2.0000      -0.393350       -10.7036 
  33   2.0000      -0.376898       -10.2559 
  34   2.0000      -0.369584       -10.0569 
  35   2.0000      -0.324307        -8.8248 
  36   2.0000      -0.290267        -7.8986 
  37   2.0000      -0.276491        -7.5237 
  38   2.0000      -0.263575        -7.1723 
  39   2.0000      -0.259789        -7.0692 
  40   2.0000      -0.239724        -6.5232 
  41   2.0000      -0.232624        -6.3300 
  42   0.0000      -0.040939        -1.1140 
  43   0.0000      -0.032348        -0.8802 
  44   0.0000       0.049876         1.3572 
  45   0.0000       0.055146         1.5006 
  46   0.0000       0.080852         2.2001 
  47   0.0000       0.084683         2.3043 
  48   0.0000       0.087062         2.3691 
  49   0.0000       0.089778         2.4430 
  50   0.0000       0.103760         2.8235 
  51   0.0000       0.110742         3.0134 
  52   0.0000       0.146490         3.9862 
  53   0.0000       0.155481         4.2309 
  54   0.0000       0.160700         4.3729 
  55   0.0000       0.182095         4.9551 
  56   0.0000       0.203729         5.5438 
  57   0.0000       0.215989         5.8773 
  58   0.0000       0.235611         6.4113 
  59   0.0000       0.272191         7.4067 
  60   0.0000       0.285080         7.7574 
  61   0.0000       0.306916         8.3516 
  62   0.0000       0.322249         8.7688 
  63   0.0000       0.331771         9.0280 
  64   0.0000       0.358463         9.7543 
  65   0.0000       0.381651        10.3853 
  66   0.0000       0.399442        10.8694 
  67   0.0000       0.427943        11.6449 
  68   0.0000       0.436738        11.8842 
  69   0.0000       0.444590        12.0979 
  70   0.0000       0.451010        12.2726 
  71   0.0000       0.476433        12.9644 
  72   0.0000       0.491662        13.3788 
  73   0.0000       0.495877        13.4935 
  74   0.0000       0.496717        13.5164 
  75   0.0000       0.525440        14.2979 
  76   0.0000       0.528974        14.3941 
  77   0.0000       0.531995        14.4763 
  78   0.0000       0.543217        14.7817 
  79   0.0000       0.547103        14.8874 
  80   0.0000       0.558825        15.2064 
  81   0.0000       0.577262        15.7081 
  82   0.0000       0.598710        16.2917 
  83   0.0000       0.614477        16.7208 
  84   0.0000       0.633198        17.2302 
  85   0.0000       0.639036        17.3890 
  86   0.0000       0.645262        17.5585 
  87   0.0000       0.649077        17.6623 
  88   0.0000       0.654923        17.8214 
  89   0.0000       0.667722        18.1696 
  90   0.0000       0.672441        18.2980 
  91   0.0000       0.693465        18.8702 
  92   0.0000       0.702347        19.1118 
  93   0.0000       0.720366        19.6021 
  94   0.0000       0.745350        20.2820 
  95   0.0000       0.753207        20.4958 
  96   0.0000       0.757809        20.6210 
  97   0.0000       0.777999        21.1704 
  98   0.0000       0.797215        21.6933 
  99   0.0000       0.805122        21.9085 
 100   0.0000       0.836666        22.7668 
 101   0.0000       0.844545        22.9812 
 102   0.0000       0.856717        23.3125 
 103   0.0000       0.874114        23.7858 
 104   0.0000       0.880043        23.9472 
 105   0.0000       0.900789        24.5117 
 106   0.0000       0.918032        24.9809 
 107   0.0000       0.941597        25.6222 
 108   0.0000       0.968696        26.3596 
 109   0.0000       0.983900        26.7733 
 110   0.0000       0.996850        27.1257 
 111   0.0000       1.012422        27.5494 
 112   0.0000       1.030487        28.0410 
 113   0.0000       1.049516        28.5588 
 114   0.0000       1.062610        28.9151 
 115   0.0000       1.070533        29.1307 
 116   0.0000       1.079938        29.3866 
 117   0.0000       1.096463        29.8363 
 118   0.0000       1.114082        30.3157 
 119   0.0000       1.133214        30.8363 
 120   0.0000       1.147345        31.2209 
 121   0.0000       1.160741        31.5854 
 122   0.0000       1.182193        32.1691 
 123   0.0000       1.223846        33.3025 
 124   0.0000       1.234668        33.5970 
 125   0.0000       1.251081        34.0436 
 126   0.0000       1.298937        35.3459 
 127   0.0000       1.310997        35.6741 
 128   0.0000       1.330656        36.2090 
 129   0.0000       1.343959        36.5710 
 130   0.0000       1.369477        37.2654 
 131   0.0000       1.400526        38.1102 
 132   0.0000       1.425004        38.7763 
 133   0.0000       1.429898        38.9095 
 134   0.0000       1.435458        39.0608 
 135   0.0000       1.458519        39.6883 
 136   0.0000       1.472102        40.0579 
 137   0.0000       1.482019        40.3278 
 138   0.0000       1.502914        40.8964 
 139   0.0000       1.509521        41.0762 
 140   0.0000       1.513753        41.1913 
 141   0.0000       1.524157        41.4744 
 142   0.0000       1.552105        42.2349 
 143   0.0000       1.579425        42.9783 
 144   0.0000       1.586769        43.1782 
 145   0.0000       1.590898        43.2905 
 146   0.0000       1.632227        44.4151 
 147   0.0000       1.643242        44.7149 
 148   0.0000       1.656430        45.0738 
 149   0.0000       1.660570        45.1864 
 150   0.0000       1.667863        45.3849 
 151   0.0000       1.683336        45.8059 
 152   0.0000       1.693102        46.0716 
 153   0.0000       1.708251        46.4839 
 154   0.0000       1.717425        46.7335 
 155   0.0000       1.733527        47.1717 
 156   0.0000       1.754381        47.7391 
 157   0.0000       1.766719        48.0749 
 158   0.0000       1.788630        48.6711 
 159   0.0000       1.811759        49.3005 
 160   0.0000       1.828064        49.7442 
 161   0.0000       1.860886        50.6373 
 162   0.0000       1.870855        50.9086 
 163   0.0000       1.884976        51.2928 
 164   0.0000       1.897446        51.6321 
 165   0.0000       1.924448        52.3669 
 166   0.0000       1.974138        53.7190 
 167   0.0000       2.000622        54.4397 
 168   0.0000       2.010259        54.7019 
 169   0.0000       2.025262        55.1102 
 170   0.0000       2.047822        55.7241 
 171   0.0000       2.077068        56.5199 
 172   0.0000       2.092722        56.9459 
 173   0.0000       2.126370        57.8615 
 174   0.0000       2.156721        58.6874 
 175   0.0000       2.172189        59.1083 
 176   0.0000       2.196744        59.7764 
 177   0.0000       2.201168        59.8968 
 178   0.0000       2.221018        60.4370 
 179   0.0000       2.257928        61.4413 
 180   0.0000       2.276346        61.9425 
 181   0.0000       2.280742        62.0622 
 182   0.0000       2.291580        62.3571 
 183   0.0000       2.301791        62.6349 
 184   0.0000       2.314699        62.9862 
 185   0.0000       2.355244        64.0895 
 186   0.0000       2.382406        64.8286 
 187   0.0000       2.404176        65.4210 
 188   0.0000       2.424143        65.9643 
 189   0.0000       2.430128        66.1271 
 190   0.0000       2.481467        67.5242 
 191   0.0000       2.490556        67.7715 
 192   0.0000       2.505743        68.1847 
 193   0.0000       2.522829        68.6497 
 194   0.0000       2.569184        69.9111 
 195   0.0000       2.596477        70.6537 
 196   0.0000       2.615395        71.1685 
 197   0.0000       2.659492        72.3685 
 198   0.0000       2.696047        73.3632 
 199   0.0000       2.720665        74.0331 
 200   0.0000       2.735709        74.4424 
 201   0.0000       2.753266        74.9202 
 202   0.0000       2.788070        75.8672 
 203   0.0000       2.815374        76.6102 
 204   0.0000       2.882485        78.4364 
 205   0.0000       2.926786        79.6419 
 206   0.0000       3.003223        81.7218 
 207   0.0000       3.076083        83.7045 
 208   0.0000       3.090711        84.1025 
 209   0.0000       3.150166        85.7204 
 210   0.0000       3.282129        89.3113 
 211   0.0000       3.318770        90.3083 
 212   0.0000       3.473317        94.5138 
 213   0.0000       3.547666        96.5369 
-------
TIMINGS
-------

Total SCF time: 0 days 0 hours 0 min 37 sec 

Total time                  ....      37.147 sec
Sum of individual times     ....      37.007 sec  ( 99.6%)

Fock matrix formation       ....      34.821 sec  ( 93.7%)
  Split-RI-J                ....       5.288 sec  ( 15.2% of F)
  Chain of spheres X        ....      27.244 sec  ( 78.2% of F)
  COS-X 1 center corr.      ....       0.000 sec  (  0.0% of F)
  XC integration            ....       2.201 sec  (  6.3% of F)
    Basis function eval.    ....       0.793 sec  ( 36.0% of XC)
    Density eval.           ....       0.364 sec  ( 16.6% of XC)
    XC-Functional eval.     ....       0.089 sec  (  4.1% of XC)
    XC-Potential eval.      ....       0.707 sec  ( 32.1% of XC)
Diagonalization             ....       0.110 sec  (  0.3%)
Density matrix formation    ....       0.026 sec  (  0.1%)
Population analysis         ....       0.000 sec  (  0.0%)
Initial guess               ....       0.358 sec  (  1.0%)
Orbital Transformation      ....       0.000 sec  (  0.0%)
Orbital Orthonormalization  ....       0.000 sec  (  0.0%)
DIIS solution               ....       0.034 sec  (  0.1%)
SOSCF solution              ....       0.168 sec  (  0.5%)
Grid generation             ....       1.489 sec  (  4.0%)


-------------------------------------------------------------------------------
                          DFT DISPERSION CORRECTION                            
                                                                               
                              DFTD3 V3.1  Rev 1                                
                          USING Becke-Johnson damping                          
-------------------------------------------------------------------------------
The B3LYP functional is recognized
Active option DFTDOPT                   ...         4   

molecular C6(AA) [au] = 5002.729348 


            DFT-D V3
 parameters
 s6 scaling factor         :     1.0000 
 a1 scaling factor         :     0.3981 
 s8 scaling factor         :     1.9889 
 a2 scaling factor         :     4.4211 
 ad hoc parameters k1-k3   :    16.0000     1.3333    -4.0000 

 Edisp/kcal,au: -21.496003301688  -0.034256058111 
 E6   /kcal   : -10.545191664 
 E8   /kcal   : -10.950811637 
 % E8         :  50.943477649 

-------------------------   ----------------
Dispersion correction           -0.034256058
-------------------------   ----------------


-------------------------   --------------------
FINAL SINGLE POINT ENERGY      -529.832485463062
-------------------------   --------------------



           ************************************************************
           *        Program running with 6 parallel MPI-processes     *
           *              working on a common directory               *
           ************************************************************
------------------------------------------------------------------------------
                         ORCA SCF GRADIENT CALCULATION
------------------------------------------------------------------------------

Gradient of the Kohn-Sham DFT energy:
Kohn-Sham wavefunction type      ... RKS
Hartree-Fock exchange scaling    ...    0.200
Number of operators              ...    1
Number of atoms                  ...   23
Basis set dimensions             ...  214
Integral neglect threshold       ... 2.5e-11
Integral primitive cutoff        ... 2.5e-12

Nuclear repulsion gradient       ... done
One Electron Gradient            ... done
Pre-screening matrix             ... done
RI-J gradient                    ... done
COSX-gradient                    ... done
Exchange-correlation gradient    ... done
Dispersion correction            ... done

------------------
CARTESIAN GRADIENT
------------------

   1   C   :   -0.001509718    0.025566854   -0.002994737
   2   N   :    0.000399158   -0.012756456   -0.003140029
   3   N   :    0.035941602    0.014745736    0.006859907
   4   C   :   -0.038885074   -0.007722619   -0.003176340
   5   N   :    0.007847709   -0.027490286   -0.001589059
   6   N   :    0.003452146    0.004259002   -0.001330229
   7   C   :   -0.000763663   -0.031008003    0.002543681
   8   O   :    0.001208593    0.020254915   -0.000890868
   9   C   :    0.010177625    0.002900052   -0.000734753
  10   C   :    0.002598941   -0.002037480    0.000755175
  11   C   :   -0.004501640    0.006537602   -0.000775138
  12   H   :   -0.004310565   -0.005179809   -0.000715138
  13   H   :   -0.008577260    0.001671207    0.002905410
  14   H   :    0.008374901    0.000140071    0.001739196
  15   H   :   -0.000130930    0.003768416    0.000049731
  16   H   :   -0.003084713    0.009618422    0.000542935
  17   H   :    0.006515285   -0.000562175    0.000295455
  18   H   :   -0.010903949   -0.001622469    0.000714810
  19   H   :   -0.004328231    0.004537487    0.000655553
  20   H   :    0.003722966   -0.002749929    0.000311599
  21   H   :   -0.004435782    0.004320463   -0.001464355
  22   H   :   -0.003757650   -0.006133771    0.000089475
  23   H   :    0.004121935    0.000858598    0.000245998

Difference to translation invariance:
           :   -0.0008283139    0.0019158271    0.0008982784

Norm of the cartesian gradient     ...    0.0839804049
RMS gradient                       ...    0.0101100527
MAX gradient                       ...    0.0388850743

-------
TIMINGS
-------

Total SCF gradient time            ...        7.678 sec

One electron gradient       ....       0.157 sec  (  2.0%)
Prescreening matrices       ....       0.152 sec  (  2.0%)
RI-J Coulomb gradient       ....       1.232 sec  ( 16.0%)
COSX gradient               ....       3.585 sec  ( 46.7%)
XC gradient                 ....       2.060 sec  ( 26.8%)
------------------------------------------------------------------------------
                         ORCA GEOMETRY RELAXATION STEP
------------------------------------------------------------------------------

Reading the OPT-File                    .... done
Getting information on internals        .... done
Copying old internal coords+grads       .... done
Making the new internal coordinates     .... (new redundants).... done
Validating the new internal coordinates .... (new redundants).... done
Calculating the B-matrix                .... done
Calculating the G,G- and P matrices     .... done
Transforming gradient to internals      .... done
Projecting the internal gradient        .... done
Number of atoms                         ....  23
Number of internal coordinates          ....  99
Current Energy                          ....  -529.832485463 Eh
Current gradient norm                   ....     0.083980405 Eh/bohr
Maximum allowed component of the step   ....  0.300
Current trust radius                    ....  0.300
Evaluating the initial hessian          ....  (Almloef) done
Projecting the Hessian                  .... done
Forming the augmented Hessian           .... done
Diagonalizing the augmented Hessian     .... done
Last element of RFO vector              ....  0.979693302
Lowest eigenvalues of augmented Hessian:
 -0.009943645  0.010250773  0.012193176  0.012623293  0.018860426
Length of the computed step             ....  0.204657880
The final length of the internal step   ....  0.204657880
Converting the step to cartesian space:
 Initial RMS(Int)=    0.0205688909
Transforming coordinates:
 Iter   0:  RMS(Cart)=    0.0523499913 RMS(Int)=    1.4112088729
 Iter   1:  RMS(Cart)=    0.0013530059 RMS(Int)=    0.0010157228
 Iter   2:  RMS(Cart)=    0.0000751228 RMS(Int)=    0.0000641609
 Iter   3:  RMS(Cart)=    0.0000074005 RMS(Int)=    0.0000064144
 Iter   4:  RMS(Cart)=    0.0000028458 RMS(Int)=    0.0000013879
 Iter   5:  RMS(Cart)=    0.0000013652 RMS(Int)=    0.0000005748
 Iter   6:  RMS(Cart)=    0.0000006525 RMS(Int)=    0.0000002760
 Iter   7:  RMS(Cart)=    0.0000003127 RMS(Int)=    0.0000001318
 Iter   8:  RMS(Cart)=    0.0000001497 RMS(Int)=    0.0000000632
 Iter   9:  RMS(Cart)=    0.0000000717 RMS(Int)=    0.0000000302
done
Storing new coordinates                 .... done

                                .--------------------.
          ----------------------|Geometry convergence|-------------------------
          Item                value                   Tolerance       Converged
          ---------------------------------------------------------------------
          RMS gradient        0.0066402464            0.0020000000      NO
          MAX gradient        0.0372601437            0.0030000000      NO
          RMS step            0.0205688909            0.0200000000      NO
          MAX step            0.0786368674            0.0300000000      NO
          ........................................................
          Max(Bonds)      0.0318      Max(Angles)    3.90
          Max(Dihed)        4.51      Max(Improp)    0.00
          ---------------------------------------------------------------------

The optimization has not yet converged - more geometry cycles are needed


    ---------------------------------------------------------------------------
                         Redundant Internal Coordinates
                            (Angstroem and degrees)

        Definition                    Value    dE/dq     Step     New-Value
    ----------------------------------------------------------------------------
     1. B(N   1,C   0)                1.3593  0.007468 -0.0067    1.3525   
     2. B(N   2,C   0)                1.2853 -0.010224  0.0060    1.2914   
     3. B(C   3,N   2)                1.3661 -0.037260  0.0318    1.3978   
     4. B(N   4,C   3)                1.2862  0.003402 -0.0022    1.2840   
     5. B(C   6,N   5)                1.3560  0.002663 -0.0016    1.3545   
     6. B(O   7,C   6)                1.2283 -0.016703  0.0090    1.2373   
     7. B(C   8,C   6)                1.4967 -0.004075  0.0050    1.5017   
     8. B(C   9,C   8)                1.5027 -0.002587  0.0032    1.5060   
     9. B(C  10,C   8)                1.3438  0.003229 -0.0023    1.3415   
    10. B(H  11,C   0)                1.1018 -0.003333  0.0050    1.1067   
    11. B(H  12,N   1)                1.0121 -0.003063  0.0037    1.0158   
    12. B(H  13,N   1)                1.0268 -0.010307  0.0132    1.0400   
    13. B(H  13,O   7)                1.7565 -0.002185  0.0301    1.7867   
    14. B(H  14,C   3)                1.1035  0.003159 -0.0047    1.0988   
    15. B(H  15,N   4)                1.0145 -0.009858  0.0120    1.0265   
    16. B(H  16,N   5)                1.0053 -0.003715  0.0044    1.0097   
    17. B(H  17,N   2)                1.9499 -0.001386  0.0304    1.9802   
    18. B(H  17,N   5)                1.0199 -0.012233  0.0151    1.0351   
    19. B(H  18,C   9)                1.0953 -0.004200  0.0061    1.1014   
    20. B(H  19,C   9)                1.0950 -0.003784  0.0055    1.1005   
    21. B(H  20,C   9)                1.0949 -0.004493  0.0065    1.1015   
    22. B(H  21,C  10)                1.0821 -0.007103  0.0099    1.0920   
    23. B(H  22,C  10)                1.0870 -0.004219  0.0060    1.0930   
    24. A(N   2,C   0,H  11)          125.23  0.005442   -0.75    124.48   
    25. A(N   1,C   0,N   2)          123.43  0.001595   -0.47    122.96   
    26. A(N   1,C   0,H  11)          111.34 -0.007025    1.21    112.55   
    27. A(C   0,N   1,H  12)          117.77  0.005635   -0.72    117.05   
    28. A(C   0,N   1,H  13)          115.58 -0.003633    0.75    116.33   
    29. A(H  12,N   1,H  13)          111.26 -0.004308    1.60    112.86   
    30. A(C   0,N   2,H  17)          116.03 -0.002268    0.29    116.33   
    31. A(C   0,N   2,C   3)          122.15  0.000133    0.15    122.30   
    32. A(C   3,N   2,H  17)          120.79  0.001923   -0.26    120.53   
    33. A(N   4,C   3,H  14)          117.75  0.012619   -1.60    116.15   
    34. A(N   2,C   3,N   4)          126.87 -0.029132    3.90    130.78   
    35. A(N   2,C   3,H  14)          115.37  0.016514   -2.30    113.07   
    36. A(C   3,N   4,H  15)          112.57  0.003106   -0.46    112.11   
    37. A(H  16,N   5,H  17)          117.10 -0.004977    0.72    117.82   
    38. A(C   6,N   5,H  17)          117.33 -0.000290    0.24    117.56   
    39. A(C   6,N   5,H  16)          124.95  0.005348   -1.01    123.94   
    40. A(O   7,C   6,C   8)          121.81  0.012716   -1.77    120.04   
    41. A(N   5,C   6,C   8)          117.96 -0.008298    0.99    118.95   
    42. A(N   5,C   6,O   7)          120.22 -0.004417    0.78    121.00   
    43. A(C   6,O   7,H  13)          122.63  0.005422   -0.76    121.87   
    44. A(C   6,C   8,C   9)          114.32  0.002563   -0.37    113.95   
    45. A(C   9,C   8,C  10)          121.42 -0.005608    0.76    122.18   
    46. A(C   6,C   8,C  10)          124.26  0.003045   -0.40    123.87   
    47. A(H  19,C   9,H  20)          107.50 -0.002535    0.70    108.20   
    48. A(H  18,C   9,H  20)          108.74  0.003943   -1.23    107.51   
    49. A(C   8,C   9,H  20)          110.46 -0.000804    0.02    110.48   
    50. A(H  18,C   9,H  19)          107.50 -0.002368    0.70    108.20   
    51. A(C   8,C   9,H  19)          112.11  0.003202   -0.33    111.77   
    52. A(C   8,C   9,H  18)          110.40 -0.001419    0.14    110.54   
    53. A(H  21,C  10,H  22)          115.60 -0.001185    0.21    115.81   
    54. A(C   8,C  10,H  22)          120.41 -0.000400    0.05    120.46   
    55. A(C   8,C  10,H  21)          123.98  0.001583   -0.25    123.73   
    56. A(N   1,H  13,O   7)          173.54 -0.000439    0.77    174.32   
    57. L(N   2,H  17,N   5,C   6, 2) 179.94 -0.000166   -0.03    179.91   
    58. L(N   2,H  17,N   5,C   6, 1) 178.28  0.003396   -0.77    177.51   
    59. D(H  13,N   1,C   0,N   2)    -14.55  0.001127   -1.81    -16.36   
    60. D(H  13,N   1,C   0,H  11)    165.79 -0.000974    0.35    166.14   
    61. D(H  12,N   1,C   0,N   2)   -149.49  0.005899   -4.51   -153.99   
    62. D(H  12,N   1,C   0,H  11)     30.86  0.003799   -2.35     28.51   
    63. D(C   3,N   2,C   0,H  11)     -0.32  0.000865   -0.16     -0.48   
    64. D(C   3,N   2,C   0,N   1)   -179.93 -0.001485    2.29   -177.63   
    65. D(H  17,N   2,C   0,N   1)     11.55 -0.000514    1.35     12.89   
    66. D(H  17,N   2,C   0,H  11)   -168.84  0.001836   -1.11   -169.95   
    67. D(H  14,C   3,N   2,H  17)    -11.81 -0.000862    0.65    -11.16   
    68. D(N   4,C   3,N   2,H  17)    167.99 -0.000482    0.19    168.18   
    69. D(H  14,C   3,N   2,C   0)   -179.80  0.000635   -0.41   -180.20   
    70. D(N   4,C   3,N   2,C   0)      0.01  0.001015   -0.87     -0.86   
    71. D(H  15,N   4,C   3,H  14)   -179.90  0.000090   -0.14   -180.04   
    72. D(H  15,N   4,C   3,N   2)      0.30 -0.000302    0.34      0.64   
    73. D(C   6,N   5,N   2,C   0)      0.28  0.000563   -0.86     -0.58   
    74. D(H  16,N   5,N   2,C   3)     20.31  0.000334   -1.29     19.01   
    75. D(H  16,N   5,N   2,C   0)   -171.09 -0.000720   -0.33   -171.42   
    76. D(C   6,N   5,N   2,C   3)   -168.32  0.001617   -1.82   -170.14   
    77. D(C   8,C   6,N   5,H  17)   -176.26 -0.000231    0.16   -176.11   
    78. D(C   8,C   6,N   5,H  16)     -5.57 -0.000124   -0.20     -5.77   
    79. D(O   7,C   6,N   5,H  17)      3.73 -0.000257    0.23      3.96   
    80. D(O   7,C   6,N   5,H  16)    174.42 -0.000150   -0.12    174.30   
    81. D(H  13,O   7,C   6,C   8)    166.20 -0.001220    0.51    166.72   
    82. D(H  13,O   7,C   6,N   5)    -13.79 -0.001191    0.43    -13.35   
    83. D(C  10,C   8,C   6,O   7)   -179.98  0.000036   -0.12   -180.10   
    84. D(C  10,C   8,C   6,N   5)      0.01  0.000008   -0.04     -0.03   
    85. D(C   9,C   8,C   6,O   7)      0.05  0.000105   -0.25     -0.20   
    86. D(C   9,C   8,C   6,N   5)   -179.96  0.000077   -0.17   -180.13   
    87. D(H  19,C   9,C   8,C   6)   -179.87 -0.000055    0.27   -179.60   
    88. D(H  18,C   9,C   8,C  10)    119.99 -0.001836    0.90    120.90   
    89. D(H  18,C   9,C   8,C   6)    -60.04 -0.001900    1.02    -59.02   
    90. D(H  20,C   9,C   8,C  10)   -119.70  0.001646   -0.53   -120.23   
    91. D(H  20,C   9,C   8,C   6)     60.27  0.001582   -0.41     59.86   
    92. D(H  19,C   9,C   8,C  10)      0.16  0.000009    0.15      0.31   
    93. D(H  22,C  10,C   8,C   9)      0.03  0.000219   -0.23     -0.20   
    94. D(H  22,C  10,C   8,C   6)   -179.94  0.000290   -0.36   -180.30   
    95. D(H  21,C  10,C   8,C   9)    179.63 -0.000011    0.04    179.66   
    96. D(H  21,C  10,C   8,C   6)     -0.34  0.000060   -0.09     -0.43   
    97. D(N   1,H  13,O   7,C   6)    136.04  0.000744    1.08    137.12   
    98. D(O   7,H  13,N   1,H  12)     23.79  0.000108    0.84     24.63   
    99. D(O   7,H  13,N   1,C   0)   -113.98  0.000216   -0.69   -114.67   
    ----------------------------------------------------------------------------

         *************************************************************
         *                GEOMETRY OPTIMIZATION CYCLE   2            *
         *************************************************************
---------------------------------
CARTESIAN COORDINATES (ANGSTROEM)
---------------------------------
  C      1.643590   -0.729145   -0.116626
  N      0.932986   -1.862643   -0.315619
  N      1.106932    0.445411   -0.116200
  C      1.861509    1.611239    0.042886
  N      3.122185    1.776278    0.222362
  N     -1.904263    0.494664    0.017963
  C     -2.515064   -0.713599    0.057387
  O     -1.856157   -1.759503    0.110930
  C     -4.015547   -0.770552    0.036745
  C     -4.575030   -2.168038    0.081516
  C     -4.804117    0.313343   -0.018355
  H      2.727194   -0.922631   -0.001531
  H      1.307225   -2.718098    0.084401
  H     -0.098710   -1.784927   -0.209915
  H      1.252396    2.525337    0.016088
  H      3.630282    0.884477    0.237615
  H     -2.392439    1.369320   -0.109063
  H     -0.870384    0.507320   -0.029076
  H     -4.212212   -2.757110   -0.775514
  H     -5.675259   -2.168256    0.057598
  H     -4.250828   -2.683772    0.999211
  H     -4.426013    1.337438   -0.046382
  H     -5.891775    0.206948   -0.035723

----------------------------
CARTESIAN COORDINATES (A.U.)
----------------------------
  NO LB      ZA    FRAG     MASS         X           Y           Z
   0 C     6.0000    0    12.011    3.105935   -1.377885   -0.220392
   1 N     7.0000    0    14.007    1.763087   -3.519885   -0.596434
   2 N     7.0000    0    14.007    2.091798    0.841704   -0.219587
   3 C     6.0000    0    12.011    3.517742    3.044800    0.081044
   4 N     7.0000    0    14.007    5.900074    3.356679    0.420203
   5 N     7.0000    0    14.007   -3.598535    0.934779    0.033944
   6 C     6.0000    0    12.011   -4.752782   -1.348506    0.108445
   7 O     8.0000    0    15.999   -3.507628   -3.324979    0.209627
   8 C     6.0000    0    12.011   -7.588284   -1.456133    0.069439
   9 C     6.0000    0    12.011   -8.645553   -4.096997    0.154044
  10 C     6.0000    0    12.011   -9.078466    0.592132   -0.034685
  11 H     1.0000    0     1.008    5.153650   -1.743521   -0.002892
  12 H     1.0000    0     1.008    2.470296   -5.136461    0.159495
  13 H     1.0000    0     1.008   -0.186534   -3.373023   -0.396681
  14 H     1.0000    0     1.008    2.366685    4.772195    0.030403
  15 H     1.0000    0     1.008    6.860238    1.671419    0.449027
  16 H     1.0000    0     1.008   -4.521055    2.587640   -0.206099
  17 H     1.0000    0     1.008   -1.644787    0.958697   -0.054946
  18 H     1.0000    0     1.008   -7.959928   -5.210183   -1.465508
  19 H     1.0000    0     1.008  -10.724685   -4.097411    0.108845
  20 H     1.0000    0     1.008   -8.032901   -5.071594    1.888235
  21 H     1.0000    0     1.008   -8.363953    2.527392   -0.087650
  22 H     1.0000    0     1.008  -11.133840    0.391076   -0.067507

--------------------------------
INTERNAL COORDINATES (ANGSTROEM)
--------------------------------
 C      0   0   0     0.000000000000     0.00000000     0.00000000
 N      1   0   0     1.352543844474     0.00000000     0.00000000
 N      1   2   0     1.291349408519   122.95383343     0.00000000
 C      3   1   2     1.397801759503   122.29680623   182.35978978
 N      4   3   1     1.284037809082   130.77712238   359.13974751
 N      3   1   2     3.014584366909   115.46675883    12.90217628
 C      6   3   1     1.354448569949   115.92362630   359.42067185
 O      7   6   3     1.237312010048   121.00946795     3.91736840
 C      7   6   3     1.501705548578   118.94858381   183.84939884
 C      9   7   6     1.505984932733   113.95308550   179.87213354
 C      9   7   6     1.341532015309   123.86631902   359.96408503
 H      1   2   3     1.106743728174   112.53126401   182.52280013
 H      2   1   3     1.015811989288   117.01722067   206.00581620
 H      2   1   3     1.040003983893   116.33431428   343.63711705
 H      4   3   1     1.098777642901   113.06819324   179.80171246
 H      5   4   3     1.026501335117   112.10996167     0.63711925
 H      6   3   1     1.009690938845   119.43934522   188.57820508
 H      6   3   1     1.035025662837     1.63769061   180.73286553
 H     10   9   7     1.101427814335   110.53538225   300.98447406
 H     10   9   7     1.100489147206   111.77462367   180.40327273
 H     10   9   7     1.101477086339   110.48176233    59.86125767
 H     11   9   7     1.092025162044   123.72609147   359.56585236
 H     11   9   7     1.092986591679   120.46095824   179.69664011

---------------------------
INTERNAL COORDINATES (A.U.)
---------------------------
 C      0   0   0     0.000000000000     0.00000000     0.00000000
 N      1   0   0     2.555937450176     0.00000000     0.00000000
 N      1   2   0     2.440296725302   122.95383343     0.00000000
 C      3   1   2     2.641462514975   122.29680623   182.35978978
 N      4   3   1     2.426479804766   130.77712238   359.13974751
 N      3   1   2     5.696738861059   115.46675883    12.90217628
 C      6   3   1     2.559536859686   115.92362630   359.42067185
 O      7   6   3     2.338180841202   121.00946795     3.91736840
 C      7   6   3     2.837812220602   118.94858381   183.84939884
 C      9   7   6     2.845899084677   113.95308550   179.87213354
 C      9   7   6     2.535128108821   123.86631902   359.96408503
 H      1   2   3     2.091442546683   112.53126401   182.52280013
 H      2   1   3     1.919606463309   117.01722067   206.00581620
 H      2   1   3     1.965322707744   116.33431428   343.63711705
 H      4   3   1     2.076388827158   113.06819324   179.80171246
 H      5   4   3     1.939806399475   112.10996167     0.63711925
 H      6   3   1     1.908039354319   119.43934522   188.57820508
 H      6   3   1     1.955915044342     1.63769061   180.73286553
 H     10   9   7     2.081396925376   110.53538225   300.98447406
 H     10   9   7     2.079623101572   111.77462367   180.40327273
 H     10   9   7     2.081490035971   110.48176233    59.86125767
 H     11   9   7     2.063628487614   123.72609147   359.56585236
 H     11   9   7     2.065445326322   120.46095824   179.69664011



           ************************************************************
           *        Program running with 6 parallel MPI-processes     *
           *              working on a common directory               *
           ************************************************************
 One Electron integrals                  ... done
 Pre-screening matrix                    ... done


           ************************************************************
           *        Program running with 6 parallel MPI-processes     *
           *              working on a common directory               *
           ************************************************************

Diagonalization of the overlap matrix:
Smallest eigenvalue                        ... 1.733e-03
Time for diagonalization                   ...    0.012 sec
[...]
Inverting numerical overlap    ... done (      0.0 sec)
Obtaining analytic overlap     ... done (      0.0 sec)
Final contraction and storage  ... done (      0.0 sec)

Time for X-Grid setup             =    0.469 sec
--------------
SCF ITERATIONS
--------------
ITER       Energy         Delta-E        Max-DP      RMS-DP      [F,P]     Damp
               ***  Starting incremental Fock matrix formation  ***
                      *** Initiating the SOSCF procedure ***
                      *** Re-Reading the Fockian *** 
                      *** Removing any level shift *** 
ITER      Energy       Delta-E        Grad      Rot      Max-DP    RMS-DP
  0   -529.80742138 -529.8074213777  0.001391  0.001391  0.004857  0.000120
               *** Restarting incremental Fock matrix formation ***
  1   -529.80768180  -0.0002604247  0.000804  0.002992  0.001960  0.000058
  2   -529.80771720  -0.0000353969  0.000250  0.001186  0.001451  0.000029
  3   -529.80771307   0.0000041324  0.000508  0.000778  0.001057  0.000018
  4   -529.80771953  -0.0000064649  0.000053  0.000151  0.000310  0.000004
  5   -529.80771946   0.0000000715  0.000081  0.000100  0.000216  0.000003
  6   -529.80771962  -0.0000001566  0.000013  0.000049  0.000048  0.000001
  7   -529.80771961   0.0000000058  0.000018  0.000031  0.000033  0.000001
                  ***Gradient check signals convergence***
              ***Rediagonalizing the Fockian in SOSCF/NRSCF***

               *****************************************************
               *                     SUCCESS                       *
               *           SCF CONVERGED AFTER   8 CYCLES          *
               *****************************************************

Setting up the final grid:

General Integration Accuracy     IntAcc      ...  4.670
Radial Grid Type                 RadialGrid  ... Gauss-Chebyshev
Angular Grid (max. acc.)         AngularGrid ... Lebedev-302
Angular grid pruning method      GridPruning ... 3 (G Style)
Weight generation scheme         WeightScheme... Becke
Basis function cutoff            BFCut       ...    1.0000e-11
Integration weight cutoff        WCut        ...    1.0000e-14
Grids for H and He will be reduced by one unit

# of grid points (after initial pruning)     ... 109060 (   0.0 sec)
# of grid points (after weights+screening)   ...  99183 (   0.1 sec)
nearest neighbour list constructed           ...    0.0 sec
Grid point re-assignment to atoms done       ...    0.0 sec
Grid point division into batches done        ...    0.4 sec
Reduced shell lists constructed in    0.7 sec

Total number of grid points                  ...    99183
Total number of batches                      ...     1562
Average number of points per batch           ...       63
Average number of grid points per atom       ...     4312
Average number of shells per batch           ...    62.77 (61.54%)
Average number of basis functions per batch  ...   125.55 (58.67%)
Average number of large shells per batch     ...    42.76 (68.12%)
Average number of large basis fcns per batch ...    86.82 (69.15%)
Maximum spatial batch extension              ...  13.04, 13.24, 17.84 au
Average spatial batch extension              ...   0.25,  0.25,  0.32 au

Final grid set up in    0.9 sec
Final integration                            ... done (   0.4 sec)
Change in XC energy                          ...    -0.000122551
Integrated number of electrons               ...    83.999870263
Previous integrated no of electrons          ...    84.005992261
Old exchange energy                            =    -13.995155507 Eh
New exchange energy                            =    -13.994828692 Eh
Exchange energy change after final integration =      0.000326816 Eh
Total energy after final integration           =   -529.807515357 Eh
Final COS-X integration done in                =     3.539 sec

----------------
TOTAL SCF ENERGY
----------------

Total Energy       :         -529.80751536 Eh          -14416.79543 eV

Components:
Nuclear Repulsion  :          579.27130850 Eh           15762.77367 eV
Electronic Energy  :        -1109.07882385 Eh          -30179.56910 eV
One Electron Energy:        -1867.89775761 Eh          -50828.08203 eV
Two Electron Energy:          758.81893376 Eh           20648.51294 eV

Virial components:
Potential Energy   :        -1056.24043807 Eh          -28741.76352 eV
Kinetic Energy     :          526.43292271 Eh           14324.96809 eV
Virial Ratio       :            2.00641030


DFT components:
N(Alpha)           :       41.999935131255 electrons
N(Beta)            :       41.999935131255 electrons
N(Total)           :       83.999870262510 electrons
E(X)               :      -55.630780309720 Eh       
E(C)               :       -3.344161366086 Eh       
E(XC)              :      -58.974941675807 Eh       

---------------
SCF CONVERGENCE
---------------

  Last Energy change         ...   -9.6434e-09  Tolerance :   1.0000e-08
  Last MAX-Density change    ...    1.5202e-13  Tolerance :   1.0000e-07
  Last RMS-Density change    ...    9.0903e-16  Tolerance :   5.0000e-09
  Last Orbital Gradient      ...    2.2111e-06  Tolerance :   1.0000e-05
  Last Orbital Rotation      ...    4.3650e-06  Tolerance :   1.0000e-05

             **** THE GBW FILE WAS UPDATED (AT-v/e/frag_27_c00001.gbw) ****
             **** DENSITY FILE WAS UPDATED (AT-v/e/frag_27_c00001.scfp.tmp) ****
             **** ENERGY FILE WAS UPDATED (AT-v/e/frag_27_c00001.en.tmp) ****
----------------
ORBITAL ENERGIES
----------------

  NO   OCC          E(Eh)            E(eV) 
   0   2.0000     -19.111534      -520.0513 
   1   2.0000     -14.350986      -390.5102 
   2   2.0000     -14.339161      -390.1884 
   3   2.0000     -14.310394      -389.4056 
   4   2.0000     -14.292580      -388.9209 
   5   2.0000     -10.291371      -280.0424 
   6   2.0000     -10.273554      -279.5576 
   7   2.0000     -10.237796      -278.5846 
   8   2.0000     -10.209890      -277.8252 
   9   2.0000     -10.200383      -277.5665 
  10   2.0000     -10.184081      -277.1229 
  11   2.0000      -1.034212       -28.1423 
  12   2.0000      -0.962330       -26.1863 
  13   2.0000      -0.904334       -24.6082 
  14   2.0000      -0.898405       -24.4468 
  15   2.0000      -0.835024       -22.7222 
  16   2.0000      -0.805115       -21.9083 
  17   2.0000      -0.692040       -18.8314 
  18   2.0000      -0.655270       -17.8308 
  19   2.0000      -0.631386       -17.1809 
  20   2.0000      -0.580775       -15.8037 
  21   2.0000      -0.557261       -15.1639 
  22   2.0000      -0.550059       -14.9679 
  23   2.0000      -0.523772       -14.2526 
  24   2.0000      -0.494035       -13.4434 
  25   2.0000      -0.482236       -13.1223 
  26   2.0000      -0.457766       -12.4564 
  27   2.0000      -0.442132       -12.0310 
  28   2.0000      -0.429927       -11.6989 
  29   2.0000      -0.413427       -11.2499 
  30   2.0000      -0.404508       -11.0072 
  31   2.0000      -0.399381       -10.8677 
  32   2.0000      -0.387184       -10.5358 
  33   2.0000      -0.374429       -10.1887 
  34   2.0000      -0.371032       -10.0963 
  35   2.0000      -0.323173        -8.7940 
  36   2.0000      -0.290871        -7.9150 
  37   2.0000      -0.275144        -7.4870 
  38   2.0000      -0.262382        -7.1398 
  39   2.0000      -0.261252        -7.1090 
  40   2.0000      -0.245447        -6.6790 
  41   2.0000      -0.231024        -6.2865 
  42   0.0000      -0.038067        -1.0358 
  43   0.0000      -0.022181        -0.6036 
  44   0.0000       0.047995         1.3060 
  45   0.0000       0.051026         1.3885 
  46   0.0000       0.078939         2.1481 
  47   0.0000       0.082497         2.2448 
  48   0.0000       0.085753         2.3335 
  49   0.0000       0.086949         2.3660 
  50   0.0000       0.104533         2.8445 
  51   0.0000       0.113703         3.0940 
  52   0.0000       0.147171         4.0047 
  53   0.0000       0.155348         4.2272 
  54   0.0000       0.161491         4.3944 
  55   0.0000       0.182667         4.9706 
  56   0.0000       0.206134         5.6092 
  57   0.0000       0.207775         5.6538 
  58   0.0000       0.232267         6.3203 
  59   0.0000       0.260210         7.0807 
  60   0.0000       0.288502         7.8505 
  61   0.0000       0.305128         8.3029 
  62   0.0000       0.318623         8.6702 
  63   0.0000       0.327941         8.9237 
  64   0.0000       0.352776         9.5995 
  65   0.0000       0.378792        10.3075 
  66   0.0000       0.403261        10.9733 
  67   0.0000       0.425622        11.5818 
  68   0.0000       0.445657        12.1269 
  69   0.0000       0.448742        12.2109 
  70   0.0000       0.453356        12.3364 
  71   0.0000       0.465175        12.6580 
  72   0.0000       0.483981        13.1698 
  73   0.0000       0.493260        13.4223 
  74   0.0000       0.496196        13.5022 
  75   0.0000       0.519210        14.1284 
  76   0.0000       0.527653        14.3582 
  77   0.0000       0.538219        14.6457 
  78   0.0000       0.540787        14.7156 
  79   0.0000       0.546042        14.8585 
  80   0.0000       0.547547        14.8995 
  81   0.0000       0.573603        15.6085 
  82   0.0000       0.593804        16.1582 
  83   0.0000       0.601904        16.3786 
  84   0.0000       0.626805        17.0562 
  85   0.0000       0.631226        17.1765 
  86   0.0000       0.643501        17.5105 
  87   0.0000       0.649086        17.6625 
  88   0.0000       0.653771        17.7900 
  89   0.0000       0.666363        18.1327 
  90   0.0000       0.668109        18.1802 
  91   0.0000       0.692465        18.8429 
  92   0.0000       0.711224        19.3534 
  93   0.0000       0.718773        19.5588 
  94   0.0000       0.743808        20.2400 
  95   0.0000       0.750295        20.4166 
  96   0.0000       0.758298        20.6343 
  97   0.0000       0.778514        21.1844 
  98   0.0000       0.796697        21.6792 
  99   0.0000       0.805728        21.9250 
 100   0.0000       0.827173        22.5085 
 101   0.0000       0.851776        23.1780 
 102   0.0000       0.855829        23.2883 
 103   0.0000       0.872848        23.7514 
 104   0.0000       0.883790        24.0492 
 105   0.0000       0.900524        24.5045 
 106   0.0000       0.939444        25.5636 
 107   0.0000       0.958447        26.0807 
 108   0.0000       0.972579        26.4652 
 109   0.0000       0.980286        26.6749 
 110   0.0000       0.989918        26.9370 
 111   0.0000       1.012871        27.5616 
 112   0.0000       1.018667        27.7193 
 113   0.0000       1.048781        28.5388 
 114   0.0000       1.052611        28.6430 
 115   0.0000       1.070419        29.1276 
 116   0.0000       1.085652        29.5421 
 117   0.0000       1.105106        30.0715 
 118   0.0000       1.117323        30.4039 
 119   0.0000       1.127885        30.6913 
 120   0.0000       1.133067        30.8323 
 121   0.0000       1.156967        31.4827 
 122   0.0000       1.191013        32.4091 
 123   0.0000       1.213378        33.0177 
 124   0.0000       1.224388        33.3173 
 125   0.0000       1.242728        33.8163 
 126   0.0000       1.300434        35.3866 
 127   0.0000       1.311997        35.7013 
 128   0.0000       1.333696        36.2917 
 129   0.0000       1.357539        36.9405 
 130   0.0000       1.364433        37.1281 
 131   0.0000       1.397564        38.0297 
 132   0.0000       1.420858        38.6635 
 133   0.0000       1.439902        39.1817 
 134   0.0000       1.447019        39.3754 
 135   0.0000       1.464957        39.8635 
 136   0.0000       1.473094        40.0849 
 137   0.0000       1.483540        40.3692 
 138   0.0000       1.497129        40.7390 
 139   0.0000       1.508496        41.0483 
 140   0.0000       1.509335        41.0711 
 141   0.0000       1.529632        41.6234 
 142   0.0000       1.567158        42.6445 
 143   0.0000       1.574238        42.8372 
 144   0.0000       1.576355        42.8948 
 145   0.0000       1.583703        43.0948 
 146   0.0000       1.614243        43.9258 
 147   0.0000       1.629199        44.3328 
 148   0.0000       1.639502        44.6131 
 149   0.0000       1.658282        45.1242 
 150   0.0000       1.662754        45.2458 
 151   0.0000       1.685613        45.8679 
 152   0.0000       1.690638        46.0046 
 153   0.0000       1.703525        46.3553 
 154   0.0000       1.705625        46.4124 
 155   0.0000       1.723627        46.9023 
 156   0.0000       1.753591        47.7176 
 157   0.0000       1.772918        48.2435 
 158   0.0000       1.782360        48.5005 
 159   0.0000       1.826261        49.6951 
 160   0.0000       1.841708        50.1154 
 161   0.0000       1.868824        50.8533 
 162   0.0000       1.872909        50.9644 
 163   0.0000       1.883421        51.2505 
 164   0.0000       1.892417        51.4953 
 165   0.0000       1.913329        52.0643 
 166   0.0000       1.965796        53.4920 
 167   0.0000       1.993368        54.2423 
 168   0.0000       2.000211        54.4285 
 169   0.0000       2.037149        55.4336 
 170   0.0000       2.046791        55.6960 
 171   0.0000       2.076284        56.4986 
 172   0.0000       2.105044        57.2812 
 173   0.0000       2.133600        58.0582 
 174   0.0000       2.145648        58.3861 
 175   0.0000       2.153519        58.6002 
 176   0.0000       2.166560        58.9551 
 177   0.0000       2.199068        59.8397 
 178   0.0000       2.211814        60.1865 
 179   0.0000       2.259852        61.4937 
 180   0.0000       2.273300        61.8596 
 181   0.0000       2.276567        61.9485 
 182   0.0000       2.280286        62.0497 
 183   0.0000       2.298769        62.5527 
 184   0.0000       2.320881        63.1544 
 185   0.0000       2.344755        63.8040 
 186   0.0000       2.376639        64.6716 
 187   0.0000       2.401452        65.3468 
 188   0.0000       2.404002        65.4162 
 189   0.0000       2.422405        65.9170 
 190   0.0000       2.455248        66.8107 
 191   0.0000       2.478103        67.4326 
 192   0.0000       2.482614        67.5554 
 193   0.0000       2.510775        68.3217 
 194   0.0000       2.550877        69.4129 
 195   0.0000       2.566576        69.8401 
 196   0.0000       2.614539        71.1452 
 197   0.0000       2.643884        71.9437 
 198   0.0000       2.685598        73.0788 
 199   0.0000       2.716947        73.9319 
 200   0.0000       2.728961        74.2588 
 201   0.0000       2.745825        74.7177 
 202   0.0000       2.773978        75.4838 
 203   0.0000       2.802747        76.2666 
 204   0.0000       2.863555        77.9213 
 205   0.0000       2.912679        79.2580 
 206   0.0000       3.004553        81.7580 
 207   0.0000       3.066223        83.4362 
 208   0.0000       3.088290        84.0366 
 209   0.0000       3.101327        84.3914 
 210   0.0000       3.267495        88.9131 
 211   0.0000       3.345798        91.0438 
 212   0.0000       3.457471        94.0826 
 213   0.0000       3.525892        95.9444 
-------
TIMINGS
-------

Total SCF time: 0 days 0 hours 0 min 23 sec 

Total time                  ....      23.713 sec
Sum of individual times     ....      23.602 sec  ( 99.5%)

Fock matrix formation       ....      21.838 sec  ( 92.1%)
  Split-RI-J                ....       3.065 sec  ( 14.0% of F)
  Chain of spheres X        ....      17.318 sec  ( 79.3% of F)
  COS-X 1 center corr.      ....       0.000 sec  (  0.0% of F)
  XC integration            ....       1.414 sec  (  6.5% of F)
    Basis function eval.    ....       0.528 sec  ( 37.3% of XC)
    Density eval.           ....       0.247 sec  ( 17.4% of XC)
    XC-Functional eval.     ....       0.059 sec  (  4.2% of XC)
    XC-Potential eval.      ....       0.455 sec  ( 32.2% of XC)
Diagonalization             ....       0.015 sec  (  0.1%)
Density matrix formation    ....       0.019 sec  (  0.1%)
Population analysis         ....       0.000 sec  (  0.0%)
Initial guess               ....       0.015 sec  (  0.1%)
Orbital Transformation      ....       0.000 sec  (  0.0%)
Orbital Orthonormalization  ....       0.011 sec  (  0.0%)
DIIS solution               ....       0.003 sec  (  0.0%)
SOSCF solution              ....       0.158 sec  (  0.7%)
Grid generation             ....       1.555 sec  (  6.6%)


-------------------------------------------------------------------------------
                          DFT DISPERSION CORRECTION                            
                                                                               
                              DFTD3 V3.1  Rev 1                                
                          USING Becke-Johnson damping                          
-------------------------------------------------------------------------------
The B3LYP functional is recognized
Active option DFTDOPT                   ...         4   

molecular C6(AA) [au] = 5004.548541 


            DFT-D V3
 parameters
 s6 scaling factor         :     1.0000 
 a1 scaling factor         :     0.3981 
 s8 scaling factor         :     1.9889 
 a2 scaling factor         :     4.4211 
 ad hoc parameters k1-k3   :    16.0000     1.3333    -4.0000 

 Edisp/kcal,au: -21.411543044974  -0.034121462139 
 E6   /kcal   : -10.500662733 
 E8   /kcal   : -10.910880312 
 % E8         :  50.957935581 

-------------------------   ----------------
Dispersion correction           -0.034121462
-------------------------   ----------------


-------------------------   --------------------
FINAL SINGLE POINT ENERGY      -529.841636818778
-------------------------   --------------------

                                *** OPTIMIZATION RUN DONE ***

                            ***************************************
                            *     ORCA property calculations      *
                            ***************************************

                                    ---------------------
                                    Active property flags
                                    ---------------------
   (+) Dipole Moment


------------------------------------------------------------------------------
                       ORCA ELECTRIC PROPERTIES CALCULATION
------------------------------------------------------------------------------

Dipole Moment Calculation                       ... on
Quadrupole Moment Calculation                   ... off
Polarizability Calculation                      ... off
GBWName                                         ... AT-v/e/frag_27_c00001.gbw
Electron density file                           ... AT-v/e/frag_27_c00001.scfp.tmp
The origin for moment calculation is the CENTER OF MASS  = (-1.854695, -0.625799  0.021985)

-------------
DIPOLE MOMENT
-------------
                                X             Y             Z
Electronic contribution:      5.72098       1.37297       0.00728
Nuclear contribution   :     -6.57442      -2.11870      -0.05734
                        -----------------------------------------
Total Dipole Moment    :     -0.85344      -0.74572      -0.05006
                        -----------------------------------------
Magnitude (a.u.)       :      1.13445
Magnitude (Debye)      :      2.88353


Timings for individual modules:

Sum of individual times         ...      266.469 sec (=   4.441 min)
GTO integral calculation        ...        6.770 sec (=   0.113 min)   2.5 %
SCF iterations                  ...      210.873 sec (=   3.515 min)  79.1 %
SCF Gradient evaluation         ...       47.892 sec (=   0.798 min)  18.0 %
Geometry relaxation             ...        0.934 sec (=   0.016 min)   0.4 %
                             ****ORCA TERMINATED NORMALLY****
TOTAL RUN TIME: 0 days 0 hours 4 minutes 28 seconds 700 msec
