
                                 *****************
                                 * O   R   C   A *
                                 *****************

           --- An Ab Initio, DFT and Semiempirical electronic structure package ---

                  #######################################################
                  #                        -***-                        #
                  #  Department of molecular theory and spectroscopy    #
                  #              Directorship: Frank Neese              #
                  # Max Planck Institute for Chemical Energy Conversion #
                  #                  D-45470 Muelheim/Ruhr              #
                  #                       Germany                       #
                  #                                                     #
                  #                  All rights reserved                #
                  #                        -***-                        #
                  #######################################################


                         Program Version 4.0.1.2 - RELEASE -


 With contributions from (in alphabetic order):
   Daniel Aravena         : Magnetic Properties
   Michael Atanasov       : Ab Initio Ligand Field Theory
   Ute Becker             : Parallelization
   Martin Brehm           : Molecular dynamics
   Dmytro Bykov           : SCF Hessian
   Vijay G. Chilkuri      : MRCI spin determinant printing
   Dipayan Datta          : RHF DLPNO-CCSD density
   Achintya Kumar Dutta   : EOM-CC, STEOM-CC
   Dmitry Ganyushin       : Spin-Orbit,Spin-Spin,Magnetic field MRCI
   Yang Guo               : DLPNO-NEVPT2, CIM, IAO-localization
   Andreas Hansen         : Spin unrestricted coupled pair/coupled cluster methods
   Lee Huntington         : MR-EOM, pCC
   Robert Izsak           : Overlap fitted RIJCOSX, COSX-SCS-MP3, EOM
   Christian Kollmar      : KDIIS, OOCD, Brueckner-CCSD(T), CCSD density
   Simone Kossmann        : Meta GGA functionals, TD-DFT gradient, OOMP2, MP2 Hessian
   Martin Krupicka        : AUTO-CI
   Dagmar Lenk            : GEPOL surface
   Dimitrios Liakos       : Extrapolation schemes; parallel MDCI
   Dimitrios Manganas     : ROCIS; embedding schemes
   Dimitrios Pantazis     : SARC Basis sets
   Taras Petrenko         : DFT Hessian,TD-DFT gradient, ASA, ECA, R-Raman, ABS, FL, XAS/XES, NRVS
   Peter Pinski           : DLPNO-MP2
   Christoph Reimann      : Effective Core Potentials
   Marius Retegan         : Local ZFS, SOC
   Christoph Riplinger    : Optimizer, TS searches, QM/MM, DLPNO-CCSD(T), (RO)-DLPNO pert. Triples
   Tobias Risthaus        : Range-separated hybrids, TD-DFT gradient, RPA, STAB
   Michael Roemelt        : Restricted open shell CIS
   Masaaki Saitow         : Open-shell DLPNO
   Barbara Sandhoefer     : DKH picture change effects
   Kantharuban Sivalingam : CASSCF convergence, NEVPT2, FIC-MRCI
   Georgi Stoychev        : AutoAux
   Boris Wezisla          : Elementary symmetry handling
   Frank Wennmohs         : Technical directorship


 We gratefully acknowledge several colleagues who have allowed us to
 interface, adapt or use parts of their codes:
   Stefan Grimme, W. Hujo, H. Kruse,             : VdW corrections, initial TS optimization,
                  C. Bannwarth                     DFT functionals, gCP, sTDA/sTD-DF
   Ed Valeev                                     : LibInt (2-el integral package), F12 methods
   Garnet Chan, S. Sharma, J. Yang, R. Olivares  : DMRG
   Ulf Ekstrom                                   : XCFun DFT Library
   Mihaly Kallay                                 : mrcc  (arbitrary order and MRCC methods)
   Andreas Klamt, Michael Diedenhofen            : otool_cosmo (COSMO solvation model)
   Jiri Pittner, Ondrej Demel                    : Mk-CCSD
   Frank Weinhold                                : gennbo (NPA and NBO analysis)
   Christopher J. Cramer and Donald G. Truhlar   : smd solvation model


 Your calculation uses the libint2 library for the computation of 2-el integrals
 For citations please refer to: http://libint.valeyev.net

 This ORCA versions uses:
   CBLAS   interface :  Fast vector & matrix operations
   LAPACKE interface :  Fast linear algebra routines
   SCALAPACK package :  Parallel linear algebra routines


Your calculation utilizes the atom-pairwise dispersion correction
with the Becke-Johnson damping scheme (D3BJ)
Cite in your paper:
S.Grimme, S.Ehrlich, L.Goerigk, J Comput Chem, (2011), 32, 1456–1465 
S.Grimme, J.Antony, S.Ehrlich and H.Krieg, J.Chem.Phys., 132, (2010), 154104 
   

Your calculation utilizes the basis: cc-pVDZ 
       H, B-Ne : Obtained from the ccRepo (grant-hill.group.shef.ac.uk/ccrepo) Feb. 2017
                 T. H. Dunning, Jr., J. Chem. Phys. 90, 1007 (1989)
            He : Obtained from the ccRepo (grant-hill.group.shef.ac.uk/ccrepo) Feb. 2017
                 D. E. Woon, T. H. Dunning, Jr., J. Chem. Phys. 100, 2975 (1994)
  Li-Be, Na-Mg : Obtained from the ccRepo (grant-hill.group.shef.ac.uk/ccrepo) Feb. 2017
                 B. P. Prascher, D. E. Woon, K. A. Peterson, T. H. Dunning, Jr., A. K. Wilson, Theor. Chem. Acc. 128, 69 (2011)
         Al-Ar : Obtained from the ccRepo (grant-hill.group.shef.ac.uk/ccrepo) Feb. 2017
                 D. E. Woon, T. H. Dunning, Jr., J. Chem. Phys. 98, 1358 (1993)
            Ca : Obtained from the Peterson Research Group Website (tyr0.chem.wsu.edu/~kipeters) Feb. 2017
                 J. Koput, K. A. Peterson, J. Phys. Chem. 106, 9595 (2002)
         Sc-Zn : Obtained from the ccRepo (grant-hill.group.shef.ac.uk/ccrepo) Feb. 2017
                 N. B. Balabanov, K. A. Peterson, J. Chem. Phys. 123, 064107 (2005)
                 N. B. Balabanov, K. A. Peterson, J. Chem. Phys. 125, 074110 (2006)
         Ga-Kr : Obtained from the ccRepo (grant-hill.group.shef.ac.uk/ccrepo) Feb. 2017
                 A. K. Wilson, D. E. Woon, K. A. Peterson, T. H. Dunning, Jr., J. Chem. Phys. 110, 7667 (1999)

Your calculation utilizes the auxiliary basis: def2/J
   F. Weigend, Phys. Chem. Chem. Phys. 8, 1057 (2006).

================================================================================
                                        WARNINGS
                       Please study these warnings very carefully!
================================================================================

Warning: TCutStore was < 0. Adjusted to Thresh (uncritical)

WARNING: Geometry Optimization
  ===> : Switching off AutoStart
         For restart on a previous wavefunction, please use MOREAD

INFO   : the flag for use of LIBINT has been found!

================================================================================
                                       INPUT FILE
================================================================================
NAME = AT-v/e/frag_19_c00001.com
|  1> %pal nprocs 6 end
|  2> %maxcore 1000
|  3> ! b3lyp TIGHTSCF nopop D3BJ
|  4> ! cc-pvdz def2/J RIJCOSX
|  5> ! Opt
|  6> 
|  7> %geom
|  8> maxiter 60
|  9> TolE 1e-4
| 10> TolRMSG 2e-3
| 11> TolMaxG 3e-3
| 12> TolRMSD 2e-2
| 13> TolMaxD 3e-2
| 14> end
| 15> 
| 16> *xyz 0 1
| 17> C 3.0468 -0.8188 0.0556
| 18> C 1.7363 -0.6081 -0.1437
| 19> N 0.9739 -1.694 -0.5068
| 20> N 1.0975 0.603 -0.0147
| 21> C 1.7271 1.6746 0.3193
| 22> N -1.8301 0.4631 -0.0998
| 23> C -2.4236 -0.7178 0.2049
| 24> O -1.7675 -1.7083 0.5082
| 25> C -3.9044 -0.7749 0.1593
| 26> C -4.7361 0.2275 -0.1539
| 27> H 3.4755 -1.8083 -0.0884
| 28> H 3.7505 -0.0529 0.3468
| 29> H 1.3485 -2.5759 -0.1739
| 30> H 0.0115 -1.5861 -0.166
| 31> H 2.8006 1.7587 0.5313
| 32> H 1.1571 2.6157 0.4015
| 33> H -2.3074 1.2363 -0.5254
| 34> H -0.808 0.4678 -0.141
| 35> H -4.3075 -1.7561 0.4082
| 36> H -4.4022 1.2284 -0.4046
| 37> H -5.8078 0.0548 -0.1519
| 38> *
| 39> 
| 40> 
| 41>                          ****END OF INPUT****
================================================================================

                       *****************************
                       * Geometry Optimization Run *
                       *****************************

Geometry optimization settings:
Update method            Update   .... BFGS
Choice of coordinates    CoordSys .... Redundant Internals
Initial Hessian          InHess   .... Almoef's Model

Convergence Tolerances:
Energy Change            TolE     ....  1.0000e-04 Eh
Max. Gradient            TolMAXG  ....  3.0000e-03 Eh/bohr
RMS Gradient             TolRMSG  ....  2.0000e-03 Eh/bohr
Max. Displacement        TolMAXD  ....  3.0000e-02 bohr
RMS Displacement         TolRMSD  ....  2.0000e-02 bohr

------------------------------------------------------------------------------
                        ORCA OPTIMIZATION COORDINATE SETUP
------------------------------------------------------------------------------

The optimization will be done in new redundant internal coordinates
Making redundant internal coordinates   ...  (new redundants) done
Evaluating the initial hessian          ...  (Almloef) done
Evaluating the coordinates              ...  done
Calculating the B-matrix                .... done
Calculating the G-matrix                .... done
Diagonalizing the G-matrix              .... done
Small eigenvalue found = 1.822e-02
The first mode is                       ....   47
The number of degrees of freedom        ....   57

    -----------------------------------------------------------------
                    Redundant Internal Coordinates


    -----------------------------------------------------------------
         Definition                    Initial Value    Approx d2E/dq
    -----------------------------------------------------------------
      1. B(C   1,C   0)                  1.3422         0.744708   
      2. B(N   2,C   1)                  1.3756         0.589998   
      3. B(N   3,C   1)                  1.3753         0.590632   
      4. B(C   4,N   3)                  1.2870         0.817074   
      5. B(C   6,N   5)                  1.3563         0.633296   
      6. B(O   7,C   6)                  1.2262         1.021456   
      7. B(C   8,C   6)                  1.4826         0.444629   
      8. B(C   9,C   8)                  1.3396         0.751780   
      9. B(H  10,C   0)                  1.0879         0.362825   
     10. B(H  11,C   0)                  1.0801         0.373452   
     11. B(H  12,N   2)                  1.0143         0.425856   
     12. B(H  13,N   2)                  1.0266         0.407041   
     13. B(H  13,O   7)                  1.9064         0.016072   
     14. B(H  14,C   4)                  1.0975         0.350365   
     15. B(H  15,C   4)                  1.1033         0.342897   
     16. B(H  16,N   5)                  1.0034         0.443346   
     17. B(H  17,H  13)                  2.2115         0.001120   
     18. B(H  17,N   3)                  1.9145         0.015602   
     19. B(H  17,N   5)                  1.0229         0.412618   
     20. B(H  18,C   8)                  1.0896         0.360650   
     21. B(H  19,C   9)                  1.0845         0.367450   
     22. B(H  20,C   9)                  1.0855         0.366065   
     23. A(H  10,C   0,H  11)          115.0809         0.292857   
     24. A(C   1,C   0,H  10)          120.5212         0.364556   
     25. A(C   1,C   0,H  11)          124.3916         0.366363   
     26. A(C   0,C   1,N   2)          117.1558         0.441739   
     27. A(N   2,C   1,N   3)          117.5472         0.420955   
     28. A(C   0,C   1,N   3)          125.2970         0.441825   
     29. A(H  12,N   2,H  13)          109.1853         0.299550   
     30. A(C   1,N   2,H  13)          110.4238         0.351993   
     31. A(C   1,N   2,H  12)          113.2672         0.354697   
     32. A(C   4,N   3,H  17)          124.2529         0.224318   
     33. A(C   1,N   3,H  17)          113.1991         0.214734   
     34. A(C   1,N   3,C   4)          122.0294         0.446344   
     35. A(N   3,C   4,H  14)          126.3327         0.365887   
     36. A(H  14,C   4,H  15)          115.1877         0.287381   
     37. A(N   3,C   4,H  15)          118.4784         0.364540   
     38. A(H  16,N   5,H  17)          117.0439         0.302133   
     39. A(C   6,N   5,H  17)          116.7610         0.357067   
     40. A(C   6,N   5,H  16)          123.9218         0.361460   
     41. A(O   7,C   6,C   8)          120.7250         0.444393   
     42. A(N   5,C   6,C   8)          117.6243         0.407946   
     43. A(N   5,C   6,O   7)          121.6508         0.470845   
     44. A(C   6,O   7,H  13)          111.1039         0.232289   
     45. A(C   9,C   8,H  18)          119.8383         0.364771   
     46. A(C   6,C   8,H  18)          113.4010         0.333863   
     47. A(C   6,C   8,C   9)          126.7596         0.423322   
     48. A(H  19,C   9,H  20)          116.8218         0.292520   
     49. A(C   8,C   9,H  20)          119.5681         0.365703   
     50. A(C   8,C   9,H  19)          123.6061         0.365939   
     51. A(N   2,H  13,H  17)          116.6627         0.133398   
     52. A(N   2,H  13,O   7)          170.2113         0.189284   
     53. A(O   7,H  13,H  17)           73.1260         0.110364   
     54. A(N   3,H  17,N   5)          172.8247         0.188921   
     55. A(N   3,H  17,H  13)           72.3924         0.110221   
     56. A(N   5,H  17,H  13)          111.4967         0.133534   
     57. D(N   2,C   1,C   0,H  10)      1.2332         0.039497   
     58. D(N   2,C   1,C   0,H  11)   -179.7272         0.039497   
     59. D(N   3,C   1,C   0,H  11)      0.2993         0.039497   
     60. D(N   3,C   1,C   0,H  10)   -178.7403         0.039497   
     61. D(H  13,N   2,C   1,C   0)    150.1503         0.027983   
     62. D(H  13,N   2,C   1,N   3)    -29.8741         0.027983   
     63. D(H  12,N   2,C   1,N   3)   -152.6821         0.027983   
     64. D(H  12,N   2,C   1,C   0)     27.3422         0.027983   
     65. D(H  17,N   3,C   1,N   2)      8.0129         0.028047   
     66. D(C   4,N   3,C   1,N   2)   -179.9206         0.028047   
     67. D(H  17,N   3,C   1,C   0)   -172.0136         0.028047   
     68. D(C   4,N   3,C   1,C   0)      0.0528         0.028047   
     69. D(H  14,C   4,N   3,H  17)    171.3371         0.057217   
     70. D(H  15,C   4,N   3,C   1)    179.7439         0.057217   
     71. D(H  14,C   4,N   3,C   1)      0.1659         0.057217   
     72. D(H  15,C   4,N   3,H  17)     -9.0850         0.057217   
     73. D(C   8,C   6,N   5,H  17)   -175.0215         0.032587   
     74. D(C   8,C   6,N   5,H  16)    -12.6955         0.032587   
     75. D(O   7,C   6,N   5,H  17)      4.9671         0.032587   
     76. D(O   7,C   6,N   5,H  16)    167.2931         0.032587   
     77. D(H  13,O   7,C   6,N   5)    -22.7210         0.086034   
     78. D(H  13,O   7,C   6,C   8)    157.2672         0.086034   
     79. D(H  18,C   8,C   6,O   7)     -0.4306         0.013483   
     80. D(H  18,C   8,C   6,N   5)    179.5581         0.013483   
     81. D(C   9,C   8,C   6,O   7)    179.9635         0.013483   
     82. D(C   9,C   8,C   6,N   5)     -0.0478         0.013483   
     83. D(H  20,C   9,C   8,H  18)      0.3281         0.040324   
     84. D(H  20,C   9,C   8,C   6)    179.9112         0.040324   
     85. D(H  19,C   9,C   8,H  18)    179.5807         0.040324   
     86. D(H  19,C   9,C   8,C   6)     -0.8363         0.040324   
     87. D(O   7,H  13,N   2,C   1)   -145.0334         0.205483   
     88. D(H  17,H  13,O   7,C   6)     19.5703         0.001635   
     89. D(N   2,H  13,O   7,C   6)   -160.5455         0.001635   
     90. D(H  17,H  13,N   2,H  12)    160.0033         0.205483   
     91. D(H  17,H  13,N   2,C   1)     34.8427         0.205483   
     92. D(O   7,H  13,N   2,H  12)    -19.8728         0.205483   
     93. D(N   3,H  17,H  13,O   7)    154.3459         0.001513   
     94. D(N   5,H  17,H  13,O   7)    -19.2531         0.001513   
     95. D(N   5,H  17,H  13,N   2)    160.7689         0.001513   
     96. D(H  13,H  17,N   5,H  16)   -150.3980         0.212625   
     97. D(H  13,H  17,N   5,C   6)     13.1712         0.212625   
     98. D(N   3,H  17,N   5,H  16)     87.8945         0.212625   
     99. D(N   3,H  17,N   5,C   6)   -108.5363         0.212625   
    100. D(H  13,H  17,N   3,C   4)   -166.2404         0.001641   
    101. D(H  13,H  17,N   3,C   1)      5.6211         0.001641   
    102. D(N   3,H  17,H  13,N   2)    -25.6321         0.001513   
    103. D(N   5,H  17,N   3,C   4)    -42.3875         0.001641   
    104. D(N   5,H  17,N   3,C   1)    129.4740         0.001641   
    -----------------------------------------------------------------

Number of atoms                         .... 21
Number of degrees of freedom            .... 104

         *************************************************************
         *                GEOMETRY OPTIMIZATION CYCLE   1            *
         *************************************************************
---------------------------------
CARTESIAN COORDINATES (ANGSTROEM)
---------------------------------
  C      3.046800   -0.818800    0.055600
  C      1.736300   -0.608100   -0.143700
  N      0.973900   -1.694000   -0.506800
  N      1.097500    0.603000   -0.014700
  C      1.727100    1.674600    0.319300
  N     -1.830100    0.463100   -0.099800
  C     -2.423600   -0.717800    0.204900
  O     -1.767500   -1.708300    0.508200
  C     -3.904400   -0.774900    0.159300
  C     -4.736100    0.227500   -0.153900
  H      3.475500   -1.808300   -0.088400
  H      3.750500   -0.052900    0.346800
  H      1.348500   -2.575900   -0.173900
  H      0.011500   -1.586100   -0.166000
  H      2.800600    1.758700    0.531300
  H      1.157100    2.615700    0.401500
  H     -2.307400    1.236300   -0.525400
  H     -0.808000    0.467800   -0.141000
  H     -4.307500   -1.756100    0.408200
  H     -4.402200    1.228400   -0.404600
  H     -5.807800    0.054800   -0.151900

----------------------------
CARTESIAN COORDINATES (A.U.)
----------------------------
  NO LB      ZA    FRAG     MASS         X           Y           Z
   0 C     6.0000    0    12.011    5.757618   -1.547308    0.105069
   1 C     6.0000    0    12.011    3.281131   -1.149142   -0.271554
   2 N     7.0000    0    14.007    1.840404   -3.201196   -0.957713
   3 N     7.0000    0    14.007    2.073974    1.139505   -0.027779
   4 C     6.0000    0    12.011    3.263746    3.164535    0.603390
   5 N     7.0000    0    14.007   -3.458388    0.875132   -0.188595
   6 C     6.0000    0    12.011   -4.579940   -1.356445    0.387205
   7 O     8.0000    0    15.999   -3.340091   -3.228219    0.960359
   8 C     6.0000    0    12.011   -7.378247   -1.464349    0.301033
   9 C     6.0000    0    12.011   -8.949932    0.429913   -0.290829
  10 H     1.0000    0     1.008    6.567743   -3.417192   -0.167052
  11 H     1.0000    0     1.008    7.087418   -0.099967    0.655357
  12 H     1.0000    0     1.008    2.548296   -4.867746   -0.328623
  13 H     1.0000    0     1.008    0.021732   -2.997295   -0.313695
  14 H     1.0000    0     1.008    5.292367    3.323461    1.004011
  15 H     1.0000    0     1.008    2.186602    4.942957    0.758725
  16 H     1.0000    0     1.008   -4.360354    2.336268   -0.992862
  17 H     1.0000    0     1.008   -1.526899    0.884014   -0.266451
  18 H     1.0000    0     1.008   -8.139995   -3.318548    0.771386
  19 H     1.0000    0     1.008   -8.318952    2.321340   -0.764583
  20 H     1.0000    0     1.008  -10.975151    0.103557   -0.287049

--------------------------------
INTERNAL COORDINATES (ANGSTROEM)
--------------------------------
 C      0   0   0     0.000000000000     0.00000000     0.00000000
 C      1   0   0     1.342209085798     0.00000000     0.00000000
 N      2   1   0     1.375599571096   117.15579181     0.00000000
 N      2   1   3     1.375307111157   125.29697131   180.02646205
 C      4   2   1     1.286964925707   122.02939701     0.05283272
 N      4   2   1     2.932175946290   114.77245383   190.10939585
 C      6   4   2     1.356321919752   118.15891412    22.39595610
 O      7   6   4     1.226192623530   121.65075212   359.93568304
 C      7   6   4     1.482601905435   117.62426450   179.94708610
 C      9   7   6     1.339636103574   126.75956325   359.95217490
 H      1   2   3     1.087947581458   120.52119195     1.23319275
 H      1   2   3     1.080089783305   124.39155311   180.27284935
 H      3   2   1     1.014344704723   113.26722489    27.34224228
 H      3   2   1     1.026645415906   110.42375472   150.15028134
 H      5   4   2     1.097460277185   126.33272260     0.16593230
 H      5   4   2     1.103324997451   118.47835224   179.74387546
 H      6   4   2     1.003388703345   116.77510930   214.13351173
 H      6   4   2     1.022940829178     4.67783778   308.61078697
 H      9   7   6     1.089584443722   113.40102512   179.55807191
 H     10   9   7     1.084500119871   123.60614948   359.16370963
 H     10   9   7     1.085527604439   119.56809684   179.91115056

---------------------------
INTERNAL COORDINATES (A.U.)
---------------------------
 C      0   0   0     0.000000000000     0.00000000     0.00000000
 C      1   0   0     2.536407586620     0.00000000     0.00000000
 N      2   1   0     2.599506459311   117.15579181     0.00000000
 N      2   1   3     2.598953790122   125.29697131   180.02646205
 C      4   2   1     2.432011253549   122.02939701     0.05283272
 N      4   2   1     5.541009514959   114.77245383   190.10939585
 C      6   4   2     2.563076977766   118.15891412    22.39595610
 O      7   6   4     2.317168245907   121.65075212   359.93568304
 C      7   6   4     2.801711566902   117.62426450   179.94708610
 C      9   7   6     2.531545354869   126.75956325   359.95217490
 H      1   2   3     2.055922977017   120.52119195     1.23319275
 H      1   2   3     2.041073890493   124.39155311   180.27284935
 H      3   2   1     1.916833697320   113.26722489    27.34224228
 H      3   2   1     1.940078672707   110.42375472   150.15028134
 H      5   4   2     2.073899366738   126.33272260     0.16593230
 H      5   4   2     2.084982081892   118.47835224   179.74387546
 H      6   4   2     1.896129855192   116.77510930   214.13351173
 H      6   4   2     1.933078018353     4.67783778   308.61078697
 H      9   7   6     2.059016198415   113.40102512   179.55807191
 H     10   9   7     2.049408218761   123.60614948   359.16370963
 H     10   9   7     2.051349883202   119.56809684   179.91115056

---------------------
BASIS SET INFORMATION
---------------------
There are 4 groups of distinct atoms

 Group   1 Type C   : 17s4p1d contracted to 3s2p1d pattern {881/31/1}
 Group   2 Type N   : 17s4p1d contracted to 3s2p1d pattern {881/31/1}
 Group   3 Type O   : 17s4p1d contracted to 3s2p1d pattern {881/31/1}
 Group   4 Type H   : 4s1p contracted to 2s1p pattern {31/1}

Atom   0C    basis set group =>   1
Atom   1C    basis set group =>   1
Atom   2N    basis set group =>   2
Atom   3N    basis set group =>   2
Atom   4C    basis set group =>   1
Atom   5N    basis set group =>   2
Atom   6C    basis set group =>   1
Atom   7O    basis set group =>   3
Atom   8C    basis set group =>   1
Atom   9C    basis set group =>   1
Atom  10H    basis set group =>   4
Atom  11H    basis set group =>   4
Atom  12H    basis set group =>   4
Atom  13H    basis set group =>   4
Atom  14H    basis set group =>   4
Atom  15H    basis set group =>   4
Atom  16H    basis set group =>   4
Atom  17H    basis set group =>   4
Atom  18H    basis set group =>   4
Atom  19H    basis set group =>   4
Atom  20H    basis set group =>   4
-------------------------------
AUXILIARY BASIS SET INFORMATION
-------------------------------
There are 4 groups of distinct atoms

 Group   1 Type C   : 12s5p4d2f1g contracted to 6s4p3d1f1g pattern {711111/2111/211/2/1}
 Group   2 Type N   : 12s5p4d2f1g contracted to 6s4p3d1f1g pattern {711111/2111/211/2/1}
 Group   3 Type O   : 12s5p4d2f1g contracted to 6s4p3d1f1g pattern {711111/2111/211/2/1}
 Group   4 Type H   : 5s2p1d contracted to 3s1p1d pattern {311/2/1}

Atom   0C    basis set group =>   1
Atom   1C    basis set group =>   1
Atom   2N    basis set group =>   2
Atom   3N    basis set group =>   2
Atom   4C    basis set group =>   1
Atom   5N    basis set group =>   2
Atom   6C    basis set group =>   1
Atom   7O    basis set group =>   3
Atom   8C    basis set group =>   1
Atom   9C    basis set group =>   1
Atom  10H    basis set group =>   4
Atom  11H    basis set group =>   4
Atom  12H    basis set group =>   4
Atom  13H    basis set group =>   4
Atom  14H    basis set group =>   4
Atom  15H    basis set group =>   4
Atom  16H    basis set group =>   4
Atom  17H    basis set group =>   4
Atom  18H    basis set group =>   4
Atom  19H    basis set group =>   4
Atom  20H    basis set group =>   4


           ************************************************************
           *        Program running with 6 parallel MPI-processes     *
           *              working on a common directory               *
           ************************************************************
------------------------------------------------------------------------------
                           ORCA GTO INTEGRAL CALCULATION
                           -- RI-GTO INTEGRALS CHOSEN --
------------------------------------------------------------------------------

                         BASIS SET STATISTICS AND STARTUP INFO

Gaussian basis set:
 # of primitive gaussian shells          ...  275
 # of primitive gaussian functions       ...  417
 # of contracted shells                  ...   93
 # of contracted basis functions         ...  195
 Highest angular momentum                ...    2
 Maximum contraction depth               ...    8
Auxiliary gaussian basis set:
 # of primitive gaussian shells          ...  328
 # of primitive gaussian functions       ...  876
 # of contracted shells                  ...  205
 # of contracted aux-basis functions     ...  611
 Highest angular momentum                ...    4
 Maximum contraction depth               ...    7
Ratio of auxiliary to basis functions    ...  3.13
Integral package used                  ... LIBINT
 One Electron integrals                  ... done
 Ordering auxiliary basis shells         ... done
 Integral threshhold             Thresh  ...  2.500e-11
 Primitive cut-off               TCut    ...  2.500e-12
 Pre-screening matrix                    ... done
 Shell pair data                         ... 
 Ordering of the shell pairs             ... done (   0.001 sec) 3798 of 4371 pairs
 Determination of significant pairs      ... done (   0.000 sec)
 Creation of shell pair data             ... done (   0.001 sec)
 Storage of shell pair data              ... done (   0.003 sec)
 Shell pair data done in (   0.005 sec)
 Computing two index integrals           ... done
 Cholesky decomposition of the V-matrix  ... done


Timings:
 Total evaluation time                   ...   0.453 sec (  0.008 min)
 One electron matrix time                ...   0.054 sec (  0.001 min) = 11.8%
 Schwartz matrix evaluation time         ...   0.331 sec (  0.006 min) = 73.1%
 Two index repulsion integral time       ...   0.028 sec (  0.000 min) =  6.2%
 Cholesky decomposition of V             ...   0.013 sec (  0.000 min) =  2.9%
 Three index repulsion integral time     ...   0.000 sec (  0.000 min) =  0.0%



           ************************************************************
           *        Program running with 6 parallel MPI-processes     *
           *              working on a common directory               *
           ************************************************************
-------------------------------------------------------------------------------
                                 ORCA SCF
-------------------------------------------------------------------------------

------------
SCF SETTINGS
------------
Hamiltonian:
 Density Functional     Method          .... DFT(GTOs)
 Exchange Functional    Exchange        .... B88
   X-Alpha parameter    XAlpha          ....  0.666667
   Becke's b parameter  XBeta           ....  0.004200
 Correlation Functional Correlation     .... LYP
 LDA part of GGA corr.  LDAOpt          .... VWN-5
 Gradients option       PostSCFGGA      .... off
 Hybrid DFT is turned on
   Fraction HF Exchange ScalHFX         ....  0.200000
   Scaling of DF-GGA-X  ScalDFX         ....  0.720000
   Scaling of DF-GGA-C  ScalDFC         ....  0.810000
   Scaling of DF-LDA-C  ScalLDAC        ....  1.000000
   Perturbative correction              ....  0.000000
   NL short-range parameter             ....  4.800000
 RI-approximation to the Coulomb term is turned on
   Number of auxiliary basis functions  .... 611
   RIJ-COSX (HFX calculated with COS-X)).... on


General Settings:
 Integral files         IntName         .... AT-v/e/frag_19_c00001
 Hartree-Fock type      HFTyp           .... RHF
 Total Charge           Charge          ....    0
 Multiplicity           Mult            ....    1
 Number of Electrons    NEL             ....   76
 Basis Dimension        Dim             ....  195
 Nuclear Repulsion      ENuc            ....    496.4153361744 Eh

Convergence Acceleration:
 DIIS                   CNVDIIS         .... on
   Start iteration      DIISMaxIt       ....    12
   Startup error        DIISStart       ....  0.200000
   # of expansion vecs  DIISMaxEq       ....     5
   Bias factor          DIISBfac        ....   1.050
   Max. coefficient     DIISMaxC        ....  10.000
 Newton-Raphson         CNVNR           .... off
 SOSCF                  CNVSOSCF        .... on
   Start iteration      SOSCFMaxIt      ....   150
   Startup grad/error   SOSCFStart      ....  0.003300
 Level Shifting         CNVShift        .... on
   Level shift para.    LevelShift      ....    0.2500
   Turn off err/grad.   ShiftErr        ....    0.0010
 Zerner damping         CNVZerner       .... off
 Static damping         CNVDamp         .... on
   Fraction old density DampFac         ....    0.7000
   Max. Damping (<1)    DampMax         ....    0.9800
   Min. Damping (>=0)   DampMin         ....    0.0000
   Turn off err/grad.   DampErr         ....    0.1000
 Fernandez-Rico         CNVRico         .... off

SCF Procedure:
 Maximum # iterations   MaxIter         ....   125
 SCF integral mode      SCFMode         .... Direct
   Integral package                     .... LIBINT
 Reset frequeny         DirectResetFreq ....    20
 Integral Threshold     Thresh          ....  2.500e-11 Eh
 Primitive CutOff       TCut            ....  2.500e-12 Eh

Convergence Tolerance:
 Convergence Check Mode ConvCheckMode   .... Total+1el-Energy
 Convergence forced     ConvForced      .... 0
 Energy Change          TolE            ....  1.000e-08 Eh
 1-El. energy change                    ....  1.000e-05 Eh
 Orbital Gradient       TolG            ....  1.000e-05
 Orbital Rotation angle TolX            ....  1.000e-05
 DIIS Error             TolErr          ....  5.000e-07


Diagonalization of the overlap matrix:
Smallest eigenvalue                        ... 2.096e-03
Time for diagonalization                   ...    0.010 sec
Threshold for overlap eigenvalues          ... 1.000e-08
Number of eigenvalues below threshold      ... 0
Time for construction of square roots      ...    0.004 sec
Total time needed                          ...    0.015 sec

-------------------
DFT GRID GENERATION
-------------------

General Integration Accuracy     IntAcc      ...  4.340
Radial Grid Type                 RadialGrid  ... Gauss-Chebyshev
Angular Grid (max. acc.)         AngularGrid ... Lebedev-110
Angular grid pruning method      GridPruning ... 3 (G Style)
Weight generation scheme         WeightScheme... Becke
Basis function cutoff            BFCut       ...    1.0000e-11
Integration weight cutoff        WCut        ...    1.0000e-14
Grids for H and He will be reduced by one unit

# of grid points (after initial pruning)     ...  25492 (   0.0 sec)
# of grid points (after weights+screening)   ...  23626 (   0.0 sec)
nearest neighbour list constructed           ...    0.0 sec
Grid point re-assignment to atoms done       ...    0.0 sec
Grid point division into batches done        ...    0.0 sec
Reduced shell lists constructed in    0.1 sec

Total number of grid points                  ...    23626
Total number of batches                      ...      381
Average number of points per batch           ...       62
Average number of grid points per atom       ...     1125
Average number of shells per batch           ...    65.97 (70.93%)
Average number of basis functions per batch  ...   133.29 (68.36%)
Average number of large shells per batch     ...    49.09 (74.42%)
Average number of large basis fcns per batch ...   100.26 (75.22%)
Maximum spatial batch extension              ...  10.49, 11.86, 14.64 au
Average spatial batch extension              ...   0.36,  0.37,  0.50 au

Time for grid setup =    0.137 sec

------------------------------
INITIAL GUESS: MODEL POTENTIAL
------------------------------
Loading Hartree-Fock densities                     ... done
Calculating cut-offs                               ... done
Setting up the integral package                    ... done
Initializing the effective Hamiltonian             ... done
Starting the Coulomb interaction                   ... done (   0.1 sec)
Reading the grid                                   ... done
Mapping shells                                     ... done
Starting the XC term evaluation                    ... done (   0.1 sec)
  promolecular density results
     # of electrons  =     76.009343236
     EX              =    -61.996459491
     EC              =     -2.550859188
     EX+EC           =    -64.547318680
Transforming the Hamiltonian                       ... done (   0.0 sec)
Diagonalizing the Hamiltonian                      ... done (   0.0 sec)
Back transforming the eigenvectors                 ... done (   0.0 sec)
Now organizing SCF variables                       ... done
                      ------------------
                      INITIAL GUESS DONE (   0.4 sec)
                      ------------------
--------------------
COSX GRID GENERATION
--------------------

General Integration Accuracy     IntAcc      ...  3.340
Radial Grid Type                 RadialGrid  ... Gauss-Chebyshev
Angular Grid (max. acc.)         AngularGrid ... Lebedev-50
Angular grid pruning method      GridPruning ... 3 (G Style)
Weight generation scheme         WeightScheme... Becke
Basis function cutoff            BFCut       ...    1.0000e-11
Integration weight cutoff        WCut        ...    1.0000e-14
Grids for H and He will be reduced by one unit

# of grid points (after initial pruning)     ...   9278 (   0.0 sec)
# of grid points (after weights+screening)   ...   8682 (   0.0 sec)
nearest neighbour list constructed           ...    0.0 sec
Grid point re-assignment to atoms done       ...    0.0 sec
Grid point division into batches done        ...    0.0 sec
Reduced shell lists constructed in    0.0 sec

Total number of grid points                  ...     8682
Total number of batches                      ...      145
Average number of points per batch           ...       59
Average number of grid points per atom       ...      413
Average number of shells per batch           ...    67.77 (72.87%)
Average number of basis functions per batch  ...   137.85 (70.69%)
Average number of large shells per batch     ...    50.12 (73.95%)
Average number of large basis fcns per batch ...   102.35 (74.25%)
Maximum spatial batch extension              ...   9.10,  8.36, 16.31 au
Average spatial batch extension              ...   0.41,  0.44,  0.72 au

Overlap Fitting                  UseSFitting ... on
Constructing numerical overlap ... done (      0.0 sec)
Inverting numerical overlap    ... done (      0.0 sec)
Obtaining analytic overlap     ... done (      0.0 sec)
Final contraction and storage  ... done (      0.0 sec)


General Integration Accuracy     IntAcc      ...  3.670
Radial Grid Type                 RadialGrid  ... Gauss-Chebyshev
Angular Grid (max. acc.)         AngularGrid ... Lebedev-50
Angular grid pruning method      GridPruning ... 3 (G Style)
Weight generation scheme         WeightScheme... Becke
Basis function cutoff            BFCut       ...    1.0000e-11
Integration weight cutoff        WCut        ...    1.0000e-14
Grids for H and He will be reduced by one unit

# of grid points (after initial pruning)     ...  11880 (   0.0 sec)
# of grid points (after weights+screening)   ...  11081 (   0.0 sec)
nearest neighbour list constructed           ...    0.0 sec
Grid point re-assignment to atoms done       ...    0.0 sec
Grid point division into batches done        ...    0.0 sec
Reduced shell lists constructed in    0.0 sec

Total number of grid points                  ...    11081
Total number of batches                      ...      186
Average number of points per batch           ...       59
Average number of grid points per atom       ...      528
Average number of shells per batch           ...    67.69 (72.78%)
Average number of basis functions per batch  ...   137.31 (70.42%)
Average number of large shells per batch     ...    49.28 (72.81%)
Average number of large basis fcns per batch ...   100.72 (73.35%)
Maximum spatial batch extension              ...   9.22, 11.60, 16.71 au
Average spatial batch extension              ...   0.39,  0.41,  0.65 au

Overlap Fitting                  UseSFitting ... on
Constructing numerical overlap ... done (      0.0 sec)
Inverting numerical overlap    ... done (      0.0 sec)
Obtaining analytic overlap     ... done (      0.0 sec)
Final contraction and storage  ... done (      0.0 sec)


General Integration Accuracy     IntAcc      ...  4.010
Radial Grid Type                 RadialGrid  ... Gauss-Chebyshev
Angular Grid (max. acc.)         AngularGrid ... Lebedev-110
Angular grid pruning method      GridPruning ... 3 (G Style)
Weight generation scheme         WeightScheme... Becke
Basis function cutoff            BFCut       ...    1.0000e-11
Integration weight cutoff        WCut        ...    1.0000e-14
Grids for H and He will be reduced by one unit

# of grid points (after initial pruning)     ...  21982 (   0.0 sec)
# of grid points (after weights+screening)   ...  20415 (   0.0 sec)
nearest neighbour list constructed           ...    0.0 sec
Grid point re-assignment to atoms done       ...    0.0 sec
Grid point division into batches done        ...    0.0 sec
Reduced shell lists constructed in    0.1 sec

Total number of grid points                  ...    20415
Total number of batches                      ...      329
Average number of points per batch           ...       62
Average number of grid points per atom       ...      972
Average number of shells per batch           ...    66.05 (71.03%)
Average number of basis functions per batch  ...   133.41 (68.42%)
Average number of large shells per batch     ...    49.02 (74.21%)
Average number of large basis fcns per batch ...   100.02 (74.97%)
Maximum spatial batch extension              ...   9.24, 10.35, 17.36 au
Average spatial batch extension              ...   0.35,  0.39,  0.55 au

Overlap Fitting                  UseSFitting ... on
Constructing numerical overlap ... done (      0.0 sec)
Inverting numerical overlap    ... done (      0.0 sec)
Obtaining analytic overlap     ... done (      0.0 sec)
Final contraction and storage  ... done (      0.0 sec)

Time for X-Grid setup             =    0.389 sec
--------------
SCF ITERATIONS
--------------
ITER       Energy         Delta-E        Max-DP      RMS-DP      [F,P]     Damp
               ***  Starting incremental Fock matrix formation  ***
  0   -474.0503106537   0.000000000000 0.09358511  0.00228496  0.2665902 0.7000
  1   -474.2303625556  -0.180051901922 0.05483822  0.00153766  0.1130793 0.7000
                               ***Turning on DIIS***
  2   -474.2992877389  -0.068925183357 0.09719835  0.00233438  0.0429721 0.0000
  3   -474.4026636118  -0.103375872872 0.03596335  0.00107605  0.0615366 0.0000
  4   -474.4287993625  -0.026135750707 0.01060139  0.00031940  0.0141687 0.0000
  5   -474.4305279001  -0.001728537590 0.00491057  0.00011862  0.0072566 0.0000
                      *** Initiating the SOSCF procedure ***
                           *** Shutting down DIIS ***
                      *** Re-Reading the Fockian *** 
                      *** Removing any level shift *** 
ITER      Energy       Delta-E        Grad      Rot      Max-DP    RMS-DP
  6   -474.43068244  -0.0001545366  0.000771  0.000771  0.001262  0.000039
               *** Restarting incremental Fock matrix formation ***
  7   -474.43071059  -0.0000281574  0.000318  0.001023  0.000874  0.000028
  8   -474.43071004   0.0000005548  0.000414  0.000581  0.000621  0.000015
  9   -474.43071300  -0.0000029599  0.000072  0.000262  0.000240  0.000009
 10   -474.43071306  -0.0000000603  0.000065  0.000055  0.000103  0.000003
 11   -474.43071322  -0.0000001629  0.000019  0.000050  0.000088  0.000002
 12   -474.43071320   0.0000000176  0.000023  0.000034  0.000060  0.000001
 13   -474.43071323  -0.0000000299  0.000004  0.000010  0.000021  0.000000
 14   -474.43071323   0.0000000029  0.000005  0.000005  0.000013  0.000000
                  ***Gradient check signals convergence***
              ***Rediagonalizing the Fockian in SOSCF/NRSCF***

               *****************************************************
               *                     SUCCESS                       *
               *           SCF CONVERGED AFTER  15 CYCLES          *
               *****************************************************

Setting up the final grid:

General Integration Accuracy     IntAcc      ...  4.670
Radial Grid Type                 RadialGrid  ... Gauss-Chebyshev
Angular Grid (max. acc.)         AngularGrid ... Lebedev-302
Angular grid pruning method      GridPruning ... 3 (G Style)
Weight generation scheme         WeightScheme... Becke
Basis function cutoff            BFCut       ...    1.0000e-11
Integration weight cutoff        WCut        ...    1.0000e-14
Grids for H and He will be reduced by one unit

# of grid points (after initial pruning)     ...  99454 (   0.0 sec)
# of grid points (after weights+screening)   ...  90877 (   0.1 sec)
nearest neighbour list constructed           ...    0.0 sec
Grid point re-assignment to atoms done       ...    0.0 sec
Grid point division into batches done        ...    0.4 sec
Reduced shell lists constructed in    0.6 sec

Total number of grid points                  ...    90877
Total number of batches                      ...     1429
Average number of points per batch           ...       63
Average number of grid points per atom       ...     4327
Average number of shells per batch           ...    63.40 (68.17%)
Average number of basis functions per batch  ...   127.66 (65.47%)
Average number of large shells per batch     ...    45.71 (72.10%)
Average number of large basis fcns per batch ...    93.12 (72.95%)
Maximum spatial batch extension              ...  11.02, 12.73, 14.09 au
Average spatial batch extension              ...   0.24,  0.25,  0.29 au

Final grid set up in    0.8 sec
Final integration                            ... done (   0.4 sec)
Change in XC energy                          ...     0.000558970
Integrated number of electrons               ...    75.999997716
Previous integrated no of electrons          ...    76.006078709
Old exchange energy                            =    -12.612819682 Eh
New exchange energy                            =    -12.612096752 Eh
Exchange energy change after final integration =      0.000722930 Eh
Total energy after final integration           =   -474.429431338 Eh
Final COS-X integration done in                =     3.051 sec

----------------
TOTAL SCF ENERGY
----------------

Total Energy       :         -474.42943134 Eh          -12909.88115 eV

Components:
Nuclear Repulsion  :          496.41533617 Eh           13508.14804 eV
Electronic Energy  :         -970.84476751 Eh          -26418.02919 eV
One Electron Energy:        -1627.75051236 Eh          -44293.34327 eV
Two Electron Energy:          656.90574484 Eh           17875.31408 eV

Virial components:
Potential Energy   :         -946.14571233 Eh          -25745.93373 eV
Kinetic Energy     :          471.71628099 Eh           12836.05258 eV
Virial Ratio       :            2.00575166


DFT components:
N(Alpha)           :       37.999998858180 electrons
N(Beta)            :       37.999998858180 electrons
N(Total)           :       75.999997716360 electrons
E(X)               :      -50.122498789970 Eh       
E(C)               :       -3.017334586758 Eh       
E(XC)              :      -53.139833376728 Eh       

---------------
SCF CONVERGENCE
---------------

  Last Energy change         ...   -6.1933e-09  Tolerance :   1.0000e-08
  Last MAX-Density change    ...    1.4562e-13  Tolerance :   1.0000e-07
  Last RMS-Density change    ...    1.0244e-15  Tolerance :   5.0000e-09
  Last Orbital Gradient      ...    1.0551e-06  Tolerance :   1.0000e-05
  Last Orbital Rotation      ...    4.0664e-06  Tolerance :   1.0000e-05

             **** THE GBW FILE WAS UPDATED (AT-v/e/frag_19_c00001.gbw) ****
             **** DENSITY FILE WAS UPDATED (AT-v/e/frag_19_c00001.scfp.tmp) ****
             **** ENERGY FILE WAS UPDATED (AT-v/e/frag_19_c00001.en.tmp) ****
----------------
ORBITAL ENERGIES
----------------

  NO   OCC          E(Eh)            E(eV) 
   0   2.0000     -19.101742      -519.7848 
   1   2.0000     -14.351608      -390.5271 
   2   2.0000     -14.329195      -389.9172 
   3   2.0000     -14.300036      -389.1238 
   4   2.0000     -10.282629      -279.8046 
   5   2.0000     -10.247679      -278.8535 
   6   2.0000     -10.233376      -278.4643 
   7   2.0000     -10.206159      -277.7237 
   8   2.0000     -10.200304      -277.5644 
   9   2.0000     -10.150057      -276.1971 
  10   2.0000      -1.031650       -28.0726 
  11   2.0000      -0.960083       -26.1252 
  12   2.0000      -0.891764       -24.2661 
  13   2.0000      -0.877124       -23.8677 
  14   2.0000      -0.784367       -21.3437 
  15   2.0000      -0.716363       -19.4932 
  16   2.0000      -0.666160       -18.1271 
  17   2.0000      -0.639894       -17.4124 
  18   2.0000      -0.567128       -15.4323 
  19   2.0000      -0.548558       -14.9270 
  20   2.0000      -0.533736       -14.5237 
  21   2.0000      -0.513176       -13.9642 
  22   2.0000      -0.484632       -13.1875 
  23   2.0000      -0.469742       -12.7823 
  24   2.0000      -0.451533       -12.2868 
  25   2.0000      -0.428829       -11.6690 
  26   2.0000      -0.424862       -11.5611 
  27   2.0000      -0.409646       -11.1470 
  28   2.0000      -0.401489       -10.9251 
  29   2.0000      -0.397435       -10.8147 
  30   2.0000      -0.377826       -10.2812 
  31   2.0000      -0.369886       -10.0651 
  32   2.0000      -0.298373        -8.1192 
  33   2.0000      -0.282618        -7.6904 
  34   2.0000      -0.280906        -7.6438 
  35   2.0000      -0.258970        -7.0469 
  36   2.0000      -0.250878        -6.8267 
  37   2.0000      -0.189018        -5.1434 
  38   0.0000      -0.059058        -1.6071 
  39   0.0000      -0.040352        -1.0980 
  40   0.0000       0.051968         1.4141 
  41   0.0000       0.071881         1.9560 
  42   0.0000       0.083116         2.2617 
  43   0.0000       0.086025         2.3409 
  44   0.0000       0.100268         2.7284 
  45   0.0000       0.102055         2.7771 
  46   0.0000       0.107287         2.9194 
  47   0.0000       0.135522         3.6877 
  48   0.0000       0.149102         4.0573 
  49   0.0000       0.170846         4.6489 
  50   0.0000       0.173424         4.7191 
  51   0.0000       0.207198         5.6382 
  52   0.0000       0.219964         5.9855 
  53   0.0000       0.259874         7.0715 
  54   0.0000       0.274196         7.4613 
  55   0.0000       0.288492         7.8503 
  56   0.0000       0.298656         8.1269 
  57   0.0000       0.340418         9.2632 
  58   0.0000       0.374169        10.1816 
  59   0.0000       0.389292        10.5932 
  60   0.0000       0.402903        10.9636 
  61   0.0000       0.448851        12.2139 
  62   0.0000       0.459056        12.4915 
  63   0.0000       0.460414        12.5285 
  64   0.0000       0.464847        12.6491 
  65   0.0000       0.470626        12.8064 
  66   0.0000       0.482080        13.1181 
  67   0.0000       0.493884        13.4393 
  68   0.0000       0.519373        14.1329 
  69   0.0000       0.526014        14.3136 
  70   0.0000       0.531798        14.4710 
  71   0.0000       0.534941        14.5565 
  72   0.0000       0.540272        14.7016 
  73   0.0000       0.558347        15.1934 
  74   0.0000       0.580056        15.7841 
  75   0.0000       0.584266        15.8987 
  76   0.0000       0.599163        16.3041 
  77   0.0000       0.607486        16.5305 
  78   0.0000       0.619639        16.8612 
  79   0.0000       0.626254        17.0412 
  80   0.0000       0.634338        17.2612 
  81   0.0000       0.655021        17.8240 
  82   0.0000       0.682060        18.5598 
  83   0.0000       0.699322        19.0295 
  84   0.0000       0.713502        19.4154 
  85   0.0000       0.741369        20.1737 
  86   0.0000       0.751825        20.4582 
  87   0.0000       0.774126        21.0651 
  88   0.0000       0.779823        21.2201 
  89   0.0000       0.795714        21.6525 
  90   0.0000       0.808032        21.9877 
  91   0.0000       0.826017        22.4771 
  92   0.0000       0.850858        23.1530 
  93   0.0000       0.863772        23.5044 
  94   0.0000       0.886801        24.1311 
  95   0.0000       0.913838        24.8668 
  96   0.0000       0.915940        24.9240 
  97   0.0000       0.930970        25.3330 
  98   0.0000       0.960893        26.1472 
  99   0.0000       0.961886        26.1742 
 100   0.0000       0.972420        26.4609 
 101   0.0000       0.985020        26.8038 
 102   0.0000       0.989476        26.9250 
 103   0.0000       1.005821        27.3698 
 104   0.0000       1.025171        27.8963 
 105   0.0000       1.041291        28.3350 
 106   0.0000       1.054158        28.6851 
 107   0.0000       1.077623        29.3236 
 108   0.0000       1.087000        29.5788 
 109   0.0000       1.112732        30.2790 
 110   0.0000       1.134612        30.8744 
 111   0.0000       1.144770        31.1508 
 112   0.0000       1.176655        32.0184 
 113   0.0000       1.192373        32.4461 
 114   0.0000       1.226102        33.3639 
 115   0.0000       1.234269        33.5862 
 116   0.0000       1.273360        34.6499 
 117   0.0000       1.332002        36.2456 
 118   0.0000       1.353400        36.8279 
 119   0.0000       1.370096        37.2822 
 120   0.0000       1.382981        37.6328 
 121   0.0000       1.427296        38.8387 
 122   0.0000       1.458958        39.7003 
 123   0.0000       1.466581        39.9077 
 124   0.0000       1.472879        40.0791 
 125   0.0000       1.477410        40.2024 
 126   0.0000       1.482798        40.3490 
 127   0.0000       1.496837        40.7310 
 128   0.0000       1.523433        41.4547 
 129   0.0000       1.547002        42.0961 
 130   0.0000       1.548276        42.1307 
 131   0.0000       1.561222        42.4830 
 132   0.0000       1.587443        43.1965 
 133   0.0000       1.621666        44.1278 
 134   0.0000       1.632382        44.4194 
 135   0.0000       1.648342        44.8537 
 136   0.0000       1.660340        45.1802 
 137   0.0000       1.672173        45.5022 
 138   0.0000       1.688134        45.9365 
 139   0.0000       1.700884        46.2834 
 140   0.0000       1.703941        46.3666 
 141   0.0000       1.716212        46.7005 
 142   0.0000       1.732583        47.1460 
 143   0.0000       1.758271        47.8450 
 144   0.0000       1.768557        48.1249 
 145   0.0000       1.784023        48.5457 
 146   0.0000       1.798197        48.9314 
 147   0.0000       1.869859        50.8814 
 148   0.0000       1.877895        51.1001 
 149   0.0000       1.893450        51.5234 
 150   0.0000       1.904730        51.8303 
 151   0.0000       1.931087        52.5476 
 152   0.0000       1.940016        52.7905 
 153   0.0000       1.969969        53.6056 
 154   0.0000       1.990502        54.1643 
 155   0.0000       1.997916        54.3661 
 156   0.0000       2.023024        55.0493 
 157   0.0000       2.077265        56.5253 
 158   0.0000       2.110430        57.4277 
 159   0.0000       2.120116        57.6913 
 160   0.0000       2.151124        58.5351 
 161   0.0000       2.189861        59.5891 
 162   0.0000       2.213953        60.2447 
 163   0.0000       2.244935        61.0878 
 164   0.0000       2.253595        61.3234 
 165   0.0000       2.257732        61.4360 
 166   0.0000       2.266090        61.6634 
 167   0.0000       2.308789        62.8253 
 168   0.0000       2.318545        63.0908 
 169   0.0000       2.335906        63.5632 
 170   0.0000       2.385452        64.9115 
 171   0.0000       2.404597        65.4324 
 172   0.0000       2.424328        65.9693 
 173   0.0000       2.432373        66.1882 
 174   0.0000       2.478046        67.4311 
 175   0.0000       2.528900        68.8149 
 176   0.0000       2.568281        69.8865 
 177   0.0000       2.588947        70.4488 
 178   0.0000       2.622334        71.3573 
 179   0.0000       2.642826        71.9149 
 180   0.0000       2.685558        73.0777 
 181   0.0000       2.722268        74.0767 
 182   0.0000       2.741025        74.5871 
 183   0.0000       2.751375        74.8687 
 184   0.0000       2.821089        76.7657 
 185   0.0000       2.847062        77.4725 
 186   0.0000       2.919335        79.4391 
 187   0.0000       2.940486        80.0147 
 188   0.0000       2.975805        80.9758 
 189   0.0000       3.104956        84.4902 
 190   0.0000       3.228628        87.8554 
 191   0.0000       3.259502        88.6956 
 192   0.0000       3.319819        90.3369 
 193   0.0000       3.483820        94.7996 
 194   0.0000       3.544610        96.4537 
-------
TIMINGS
-------

Total SCF time: 0 days 0 hours 0 min 31 sec 

Total time                  ....      31.199 sec
Sum of individual times     ....      31.093 sec  ( 99.7%)

Fock matrix formation       ....      29.196 sec  ( 93.6%)
  Split-RI-J                ....       4.647 sec  ( 15.9% of F)
  Chain of spheres X        ....      22.551 sec  ( 77.2% of F)
  COS-X 1 center corr.      ....       0.000 sec  (  0.0% of F)
  XC integration            ....       1.919 sec  (  6.6% of F)
    Basis function eval.    ....       0.713 sec  ( 37.2% of XC)
    Density eval.           ....       0.332 sec  ( 17.3% of XC)
    XC-Functional eval.     ....       0.082 sec  (  4.3% of XC)
    XC-Potential eval.      ....       0.633 sec  ( 33.0% of XC)
Diagonalization             ....       0.082 sec  (  0.3%)
Density matrix formation    ....       0.036 sec  (  0.1%)
Population analysis         ....       0.000 sec  (  0.0%)
Initial guess               ....       0.309 sec  (  1.0%)
Orbital Transformation      ....       0.000 sec  (  0.0%)
Orbital Orthonormalization  ....       0.000 sec  (  0.0%)
DIIS solution               ....       0.025 sec  (  0.1%)
SOSCF solution              ....       0.150 sec  (  0.5%)
Grid generation             ....       1.294 sec  (  4.1%)


-------------------------------------------------------------------------------
                          DFT DISPERSION CORRECTION                            
                                                                               
                              DFTD3 V3.1  Rev 1                                
                          USING Becke-Johnson damping                          
-------------------------------------------------------------------------------
The B3LYP functional is recognized
Active option DFTDOPT                   ...         4   

molecular C6(AA) [au] = 4270.958259 


            DFT-D V3
 parameters
 s6 scaling factor         :     1.0000 
 a1 scaling factor         :     0.3981 
 s8 scaling factor         :     1.9889 
 a2 scaling factor         :     4.4211 
 ad hoc parameters k1-k3   :    16.0000     1.3333    -4.0000 

 Edisp/kcal,au: -19.314209276199  -0.030779148386 
 E6   /kcal   :  -9.457391873 
 E8   /kcal   :  -9.856817403 
 % E8         :  51.034019887 

-------------------------   ----------------
Dispersion correction           -0.030779148
-------------------------   ----------------


-------------------------   --------------------
FINAL SINGLE POINT ENERGY      -474.460210485996
-------------------------   --------------------



           ************************************************************
           *        Program running with 6 parallel MPI-processes     *
           *              working on a common directory               *
           ************************************************************
------------------------------------------------------------------------------
                         ORCA SCF GRADIENT CALCULATION
------------------------------------------------------------------------------

Gradient of the Kohn-Sham DFT energy:
Kohn-Sham wavefunction type      ... RKS
Hartree-Fock exchange scaling    ...    0.200
Number of operators              ...    1
Number of atoms                  ...   21
Basis set dimensions             ...  195
Integral neglect threshold       ... 2.5e-11
Integral primitive cutoff        ... 2.5e-12

Nuclear repulsion gradient       ... done
One Electron Gradient            ... done
Pre-screening matrix             ... done
RI-J gradient                    ... done
COSX-gradient                    ... done
Exchange-correlation gradient    ... done
Dispersion correction            ... done

------------------
CARTESIAN GRADIENT
------------------

   1   C   :   -0.022023316   -0.004226631   -0.003913496
   2   C   :   -0.037380707    0.034347441   -0.003578148
   3   N   :    0.032358322   -0.006569028    0.005308424
   4   N   :    0.008752048   -0.034955803   -0.003972244
   5   C   :    0.016139884    0.002039104    0.005111949
   6   N   :   -0.004020092    0.003333847   -0.002676598
   7   C   :    0.003030017   -0.016117793    0.007470228
   8   O   :   -0.003772292    0.012733940   -0.004059853
   9   C   :    0.007814979   -0.002848594    0.001081592
  10   C   :   -0.002757299    0.008974786   -0.003670972
  11   H   :    0.000729558    0.002857710   -0.000420917
  12   H   :   -0.003277451   -0.006531995   -0.000163792
  13   H   :   -0.001632234   -0.000434067    0.001243682
  14   H   :    0.003269177    0.008121200    0.001624305
  15   H   :   -0.002798615    0.004185917    0.000561142
  16   H   :    0.000696414    0.004934235    0.000430697
  17   H   :    0.007002641   -0.002718837    0.001845740
  18   H   :   -0.005161186   -0.004853124   -0.000077783
  19   H   :   -0.000433697    0.002651605   -0.000782874
  20   H   :   -0.002367398   -0.005510951    0.001085466
  21   H   :    0.005647718   -0.000420995    0.000866318

Difference to translation invariance:
           :   -0.0001835284   -0.0010080331    0.0033128630

Norm of the cartesian gradient     ...    0.0833073465
RMS gradient                       ...    0.0104957391
MAX gradient                       ...    0.0373807068

-------
TIMINGS
-------

Total SCF gradient time            ...        6.485 sec

One electron gradient       ....       0.126 sec  (  2.0%)
Prescreening matrices       ....       0.124 sec  (  1.9%)
RI-J Coulomb gradient       ....       0.988 sec  ( 15.2%)
COSX gradient               ....       3.078 sec  ( 47.5%)
XC gradient                 ....       1.598 sec  ( 24.6%)
------------------------------------------------------------------------------
                         ORCA GEOMETRY RELAXATION STEP
------------------------------------------------------------------------------

Reading the OPT-File                    .... done
Getting information on internals        .... done
Copying old internal coords+grads       .... done
Making the new internal coordinates     .... (new redundants).... done
Validating the new internal coordinates .... (new redundants).... done
Calculating the B-matrix                .... done
Calculating the G,G- and P matrices     .... done
Transforming gradient to internals      .... done
Projecting the internal gradient        .... done
Number of atoms                         ....  21
Number of internal coordinates          .... 104
Current Energy                          ....  -474.460210486 Eh
Current gradient norm                   ....     0.083307346 Eh/bohr
Maximum allowed component of the step   ....  0.300
Current trust radius                    ....  0.300
Evaluating the initial hessian          ....  (Almloef) done
Projecting the Hessian                  .... done
Forming the augmented Hessian           .... done
Diagonalizing the augmented Hessian     .... done
Last element of RFO vector              ....  0.975581548
Lowest eigenvalues of augmented Hessian:
 -0.011581199  0.013520559  0.018733555  0.023082182  0.027668827
Length of the computed step             ....  0.225134972
The final length of the internal step   ....  0.225134972
Converting the step to cartesian space:
 Initial RMS(Int)=    0.0220763003
Transforming coordinates:
 Iter   0:  RMS(Cart)=    0.0641915060 RMS(Int)=    0.8683148452
 Iter   1:  RMS(Cart)=    0.0012584859 RMS(Int)=    0.0006769796
 Iter   2:  RMS(Cart)=    0.0000460236 RMS(Int)=    0.0000370650
 Iter   3:  RMS(Cart)=    0.0000021772 RMS(Int)=    0.0000043257
 Iter   4:  RMS(Cart)=    0.0000001319 RMS(Int)=    0.0000005357
 Iter   5:  RMS(Cart)=    0.0000000149 RMS(Int)=    0.0000000684
done
Storing new coordinates                 .... done

                                .--------------------.
          ----------------------|Geometry convergence|-------------------------
          Item                value                   Tolerance       Converged
          ---------------------------------------------------------------------
          RMS gradient        0.0071681965            0.0020000000      NO
          MAX gradient        0.0354644641            0.0030000000      NO
          RMS step            0.0220763003            0.0200000000      NO
          MAX step            0.0832868385            0.0300000000      NO
          ........................................................
          Max(Bonds)      0.0441      Max(Angles)    3.66
          Max(Dihed)        2.41      Max(Improp)    0.00
          ---------------------------------------------------------------------

The optimization has not yet converged - more geometry cycles are needed


    ---------------------------------------------------------------------------
                         Redundant Internal Coordinates
                            (Angstroem and degrees)

        Definition                    Value    dE/dq     Step     New-Value
    ----------------------------------------------------------------------------
     1. B(C   1,C   0)                1.3422 -0.023530  0.0165    1.3587   
     2. B(N   2,C   1)                1.3756 -0.021390  0.0206    1.3962   
     3. B(N   3,C   1)                1.3753 -0.035464  0.0319    1.4072   
     4. B(C   4,N   3)                1.2870  0.017787 -0.0114    1.2756   
     5. B(C   6,N   5)                1.3563 -0.000170  0.0017    1.3581   
     6. B(O   7,C   6)                1.2262 -0.011836  0.0072    1.2334   
     7. B(C   8,C   6)                1.4826 -0.007993  0.0093    1.4919   
     8. B(C   9,C   8)                1.3396  0.002450 -0.0017    1.3379   
     9. B(H  10,C   0)                1.0879 -0.002279  0.0032    1.0912   
    10. B(H  11,C   0)                1.0801 -0.006824  0.0094    1.0895   
    11. B(H  12,N   2)                1.0143  0.000020 -0.0000    1.0143   
    12. B(H  13,N   2)                1.0266 -0.002679  0.0044    1.0310   
    13. B(H  13,O   7)                1.9064 -0.001098  0.0232    1.9296   
    14. B(H  14,C   4)                1.0975 -0.002322  0.0034    1.1009   
    15. B(H  15,C   4)                1.1033  0.003912 -0.0058    1.0975   
    16. B(H  16,N   5)                1.0034 -0.006134  0.0071    1.0105   
    17. B(H  17,H  13)                2.2115 -0.003823  0.0197    2.2312   
    18. B(H  17,N   3)                1.9145 -0.003606  0.0441    1.9585   
    19. B(H  17,N   5)                1.0229 -0.009400  0.0112    1.0342   
    20. B(H  18,C   8)                1.0896 -0.002456  0.0035    1.0931   
    21. B(H  19,C   9)                1.0845 -0.006026  0.0084    1.0929   
    22. B(H  20,C   9)                1.0855 -0.005514  0.0077    1.0933   
    23. A(H  10,C   0,H  11)          115.08 -0.002386    0.42    115.50   
    24. A(C   1,C   0,H  10)          120.52  0.000751   -0.14    120.38   
    25. A(C   1,C   0,H  11)          124.39  0.001635   -0.27    124.12   
    26. A(C   0,C   1,N   2)          117.16 -0.028010    3.66    120.82   
    27. A(N   2,C   1,N   3)          117.55  0.025711   -3.50    114.05   
    28. A(C   0,C   1,N   3)          125.30  0.002299   -0.17    125.13   
    29. A(H  12,N   2,H  13)          109.19  0.002667   -0.22    108.97   
    30. A(C   1,N   2,H  13)          110.42 -0.012988    2.50    112.92   
    31. A(C   1,N   2,H  12)          113.27  0.006984   -0.98    112.28   
    32. A(C   4,N   3,H  17)          124.25  0.010439   -1.96    122.29   
    33. A(C   1,N   3,H  17)          113.20 -0.008990    1.42    114.62   
    34. A(C   1,N   3,C   4)          122.03 -0.001492    0.56    122.59   
    35. A(N   3,C   4,H  14)          126.33  0.004107   -0.69    125.65   
    36. A(H  14,C   4,H  15)          115.19 -0.005277    0.93    116.12   
    37. A(N   3,C   4,H  15)          118.48  0.001168   -0.24    118.24   
    38. A(H  16,N   5,H  17)          117.04 -0.003182    0.56    117.61   
    39. A(C   6,N   5,H  17)          116.76 -0.002752    0.36    117.12   
    40. A(C   6,N   5,H  16)          123.92  0.005985   -0.94    122.98   
    41. A(O   7,C   6,C   8)          120.72  0.006118   -0.93    119.80   
    42. A(N   5,C   6,C   8)          117.62 -0.007839    0.90    118.52   
    43. A(N   5,C   6,O   7)          121.65  0.001721    0.03    121.68   
    44. A(C   6,O   7,H  13)          111.10  0.000463    0.30    111.40   
    45. A(C   9,C   8,H  18)          119.84 -0.000212    0.06    119.90   
    46. A(C   6,C   8,H  18)          113.40  0.002731   -0.42    112.98   
    47. A(C   6,C   8,C   9)          126.76 -0.002522    0.36    127.12   
    48. A(H  19,C   9,H  20)          116.82  0.000621   -0.11    116.71   
    49. A(C   8,C   9,H  20)          119.57 -0.002396    0.37    119.94   
    50. A(C   8,C   9,H  19)          123.61  0.001773   -0.26    123.34   
    51. A(N   2,H  13,H  17)          116.66 -0.000241    0.20    116.87   
    52. A(N   2,H  13,O   7)          170.21  0.003193    0.09    170.30   
    53. A(O   7,H  13,H  17)           73.13 -0.002953   -0.29     72.83   
    54. A(N   3,H  17,N   5)          172.82 -0.000155    0.91    173.73   
    55. A(N   3,H  17,H  13)           72.39 -0.002827   -0.55     71.84   
    56. A(N   5,H  17,H  13)          111.50  0.002806    0.02    111.51   
    57. D(N   2,C   1,C   0,H  10)      1.23  0.001561   -2.41     -1.17   
    58. D(N   2,C   1,C   0,H  11)   -179.73  0.001537   -2.37   -182.10   
    59. D(N   3,C   1,C   0,H  11)      0.30  0.001030   -0.50     -0.20   
    60. D(N   3,C   1,C   0,H  10)   -178.74  0.001055   -0.53   -179.27   
    61. D(H  13,N   2,C   1,C   0)    150.15 -0.000143    0.68    150.83   
    62. D(H  13,N   2,C   1,N   3)    -29.87  0.000318   -1.04    -30.92   
    63. D(H  12,N   2,C   1,N   3)   -152.68  0.001569   -1.93   -154.61   
    64. D(H  12,N   2,C   1,C   0)     27.34  0.001108   -0.20     27.14   
    65. D(H  17,N   3,C   1,N   2)      8.01  0.000518    1.74      9.76   
    66. D(C   4,N   3,C   1,N   2)   -179.92  0.001024    1.74   -178.18   
    67. D(H  17,N   3,C   1,C   0)   -172.01  0.001014   -0.13   -172.15   
    68. D(C   4,N   3,C   1,C   0)      0.05  0.001520   -0.13     -0.08   
    69. D(H  14,C   4,N   3,H  17)    171.34 -0.000654    0.22    171.56   
    70. D(H  15,C   4,N   3,C   1)    179.74 -0.000064    0.38    180.12   
    71. D(H  14,C   4,N   3,C   1)      0.17  0.000485   -0.08      0.08   
    72. D(H  15,C   4,N   3,H  17)     -9.08 -0.001202    0.68     -8.41   
    73. D(C   8,C   6,N   5,H  17)   -175.02  0.000820   -0.62   -175.64   
    74. D(C   8,C   6,N   5,H  16)    -12.70  0.000342   -0.59    -13.28   
    75. D(O   7,C   6,N   5,H  17)      4.97  0.000491    0.01      4.97   
    76. D(O   7,C   6,N   5,H  16)    167.29  0.000013    0.04    167.33   
    77. D(H  13,O   7,C   6,N   5)    -22.72 -0.001602    0.65    -22.07   
    78. D(H  13,O   7,C   6,C   8)    157.27 -0.001943    1.30    158.57   
    79. D(H  18,C   8,C   6,O   7)     -0.43  0.000496   -1.23     -1.66   
    80. D(H  18,C   8,C   6,N   5)    179.56  0.000170   -0.61    178.95   
    81. D(C   9,C   8,C   6,O   7)    179.96  0.000873   -1.77    178.19   
    82. D(C   9,C   8,C   6,N   5)     -0.05  0.000547   -1.15     -1.20   
    83. D(H  20,C   9,C   8,H  18)      0.33  0.000605   -0.74     -0.41   
    84. D(H  20,C   9,C   8,C   6)    179.91  0.000216   -0.17    179.75   
    85. D(H  19,C   9,C   8,H  18)    179.58  0.000402   -0.52    179.06   
    86. D(H  19,C   9,C   8,C   6)     -0.84  0.000012    0.06     -0.78   
    87. D(O   7,H  13,N   2,C   1)   -145.03 -0.002350   -0.07   -145.10   
    88. D(H  17,H  13,O   7,C   6)     19.57  0.000905   -0.63     18.94   
    89. D(N   2,H  13,O   7,C   6)   -160.55 -0.001850   -0.06   -160.61   
    90. D(H  17,H  13,N   2,H  12)    160.00 -0.003496    0.86    160.86   
    91. D(H  17,H  13,N   2,C   1)     34.84 -0.005298    0.54     35.38   
    92. D(O   7,H  13,N   2,H  12)    -19.87 -0.000548    0.25    -19.63   
    93. D(N   3,H  17,H  13,O   7)    154.35 -0.001665    1.59    155.94   
    94. D(N   5,H  17,H  13,O   7)    -19.25 -0.001343    0.82    -18.43   
    95. D(N   5,H  17,H  13,N   2)    160.77 -0.000826    0.71    161.48   
    96. D(H  13,H  17,N   5,H  16)   -150.40 -0.000010   -0.31   -150.71   
    97. D(H  13,H  17,N   5,C   6)     13.17  0.001213   -0.54     12.63   
    98. D(N   3,H  17,N   5,H  16)     87.89  0.001198   -0.02     87.87   
    99. D(N   3,H  17,N   5,C   6)   -108.54  0.002421   -0.26   -108.80   
   100. D(H  13,H  17,N   3,C   4)   -166.24  0.002423   -1.85   -168.10   
   101. D(H  13,H  17,N   3,C   1)      5.62  0.001793   -1.61      4.01   
   102. D(N   3,H  17,H  13,N   2)    -25.63 -0.001148    1.48    -24.15   
   103. D(N   5,H  17,N   3,C   4)    -42.39  0.001621   -2.37    -44.76   
   104. D(N   5,H  17,N   3,C   1)    129.47  0.000990   -2.13    127.35   
    ----------------------------------------------------------------------------

         *************************************************************
         *                GEOMETRY OPTIMIZATION CYCLE   2            *
         *************************************************************
---------------------------------
CARTESIAN COORDINATES (ANGSTROEM)
---------------------------------
  C      3.133382   -0.827435    0.085726
  C      1.803422   -0.638951   -0.118408
  N      0.981254   -1.700699   -0.501342
  N      1.135271    0.595263   -0.013476
  C      1.736179    1.678097    0.292386
  N     -1.849661    0.475711   -0.098519
  C     -2.455743   -0.708109    0.176425
  O     -1.806702   -1.716175    0.466246
  C     -3.945711   -0.771850    0.136216
  C     -4.790044    0.232546   -0.125260
  H      3.574149   -1.819053   -0.028596
  H      3.829340   -0.032768    0.352351
  H      1.337688   -2.596221   -0.185368
  H      0.008736   -1.593343   -0.176011
  H      2.812166    1.777293    0.502844
  H      1.144369    2.600134    0.356280
  H     -2.334563    1.258511   -0.514755
  H     -0.816118    0.479088   -0.132453
  H     -4.336205   -1.769434    0.353369
  H     -4.462185    1.253859   -0.334757
  H     -5.868324    0.052237   -0.127896

----------------------------
CARTESIAN COORDINATES (A.U.)
----------------------------
  NO LB      ZA    FRAG     MASS         X           Y           Z
   0 C     6.0000    0    12.011    5.921234   -1.563626    0.161999
   1 C     6.0000    0    12.011    3.407973   -1.207443   -0.223759
   2 N     7.0000    0    14.007    1.854301   -3.213855   -0.947400
   3 N     7.0000    0    14.007    2.145352    1.124884   -0.025465
   4 C     6.0000    0    12.011    3.280903    3.171144    0.552530
   5 N     7.0000    0    14.007   -3.495352    0.898964   -0.186174
   6 C     6.0000    0    12.011   -4.640681   -1.338132    0.333394
   7 O     8.0000    0    15.999   -3.414173   -3.243102    0.881078
   8 C     6.0000    0    12.011   -7.456314   -1.458586    0.257410
   9 C     6.0000    0    12.011   -9.051871    0.439447   -0.236707
  10 H     1.0000    0     1.008    6.754163   -3.437512   -0.054038
  11 H     1.0000    0     1.008    7.236404   -0.061923    0.665847
  12 H     1.0000    0     1.008    2.527865   -4.906147   -0.350296
  13 H     1.0000    0     1.008    0.016509   -3.010981   -0.332613
  14 H     1.0000    0     1.008    5.314224    3.358598    0.950237
  15 H     1.0000    0     1.008    2.162545    4.913541    0.673271
  16 H     1.0000    0     1.008   -4.411685    2.378241   -0.972747
  17 H     1.0000    0     1.008   -1.542240    0.905346   -0.250301
  18 H     1.0000    0     1.008   -8.194241   -3.343746    0.667770
  19 H     1.0000    0     1.008   -8.432308    2.369449   -0.632599
  20 H     1.0000    0     1.008  -11.089525    0.098714   -0.241689

--------------------------------
INTERNAL COORDINATES (ANGSTROEM)
--------------------------------
 C      0   0   0     0.000000000000     0.00000000     0.00000000
 C      1   0   0     1.358672801292     0.00000000     0.00000000
 N      2   1   0     1.396390718426   120.80109786     0.00000000
 N      2   1   3     1.407381053960   125.11155861   181.95347897
 C      4   2   1     1.275606341153   122.59285282   359.95048012
 N      4   2   1     2.988535178717   115.91084320   189.79287724
 C      6   4   2     1.358072287630   118.34976887    19.76340781
 O      7   6   4     1.233469820768   121.67761373     0.56812523
 C      7   6   4     1.491873249087   118.52215306   179.94846122
 C      9   7   6     1.337937998406   127.11792046   358.79863419
 H      1   2   3     1.091168998591   120.37999936   358.80098923
 H      1   2   3     1.089468475156   124.11709857   177.87108157
 H      3   2   1     1.014320485378   112.27006472    27.14685371
 H      3   2   1     1.031094615740   112.93206152   150.83551400
 H      5   4   2     1.100854592868   125.64531604     0.08900631
 H      5   4   2     1.097484801287   118.23625660   180.12572390
 H      6   4   2     1.010524019001   117.38753914   212.25346699
 H      6   4   2     1.034104794194     4.09435150   306.51646528
 H      9   7   6     1.093075705347   112.98100430   178.94737876
 H     10   9   7     1.092913789242   123.34454488   359.22226662
 H     10   9   7     1.093254756670   119.93949671   179.74566238

---------------------------
INTERNAL COORDINATES (A.U.)
---------------------------
 C      0   0   0     0.000000000000     0.00000000     0.00000000
 C      1   0   0     2.567519500049     0.00000000     0.00000000
 N      2   1   0     2.638796033775   120.80109786     0.00000000
 N      2   1   3     2.659564758055   125.11155861   181.95347897
 C      4   2   1     2.410546639473   122.59285282   359.95048012
 N      4   2   1     5.647513029365   115.91084320   189.79287724
 C      6   4   2     2.566384693688   118.34976887    19.76340781
 O      7   6   4     2.330920155709   121.67761373     0.56812523
 C      7   6   4     2.819231867297   118.52215306   179.94846122
 C      9   7   6     2.528336401155   127.11792046   358.79863419
 H      1   2   3     2.062010573161   120.37999936   358.80098923
 H      1   2   3     2.058797049586   124.11709857   177.87108157
 H      3   2   1     1.916787929390   112.27006472    27.14685371
 H      3   2   1     1.948486441909   112.93206152   150.83551400
 H      5   4   2     2.080313693790   125.64531604     0.08900631
 H      5   4   2     2.073945710573   118.23625660   180.12572390
 H      6   4   2     1.909613647661   117.38753914   212.25346699
 H      6   4   2     1.954174854801     4.09435150   306.51646528
 H      9   7   6     2.065613726748   112.98100430   178.94737876
 H     10   9   7     2.065307749654   123.34454488   359.22226662
 H     10   9   7     2.065952084713   119.93949671   179.74566238



           ************************************************************
           *        Program running with 6 parallel MPI-processes     *
           *              working on a common directory               *
           ************************************************************
 One Electron integrals                  ... done
 Pre-screening matrix                    ... done


           ************************************************************
           *        Program running with 6 parallel MPI-processes     *
           *              working on a common directory               *
           ************************************************************

Diagonalization of the overlap matrix:
Smallest eigenvalue                        ... 2.143e-03
Time for diagonalization                   ...    0.010 sec
Threshold for overlap eigenvalues          ... 1.000e-08
Number of eigenvalues below threshold      ... 0
Time for construction of square roots      ...    0.004 sec
Total time needed                          ...    0.015 sec

-------------------
DFT GRID GENERATION
-------------------

General Integration Accuracy     IntAcc      ...  4.340
Radial Grid Type                 RadialGrid  ... Gauss-Chebyshev
Angular Grid (max. acc.)         AngularGrid ... Lebedev-110
Angular grid pruning method      GridPruning ... 3 (G Style)
Weight generation scheme         WeightScheme... Becke
Basis function cutoff            BFCut       ...    1.0000e-11
Integration weight cutoff        WCut        ...    1.0000e-14
Grids for H and He will be reduced by one unit

# of grid points (after initial pruning)     ...  25492 (   0.0 sec)
# of grid points (after weights+screening)   ...  23651 (   0.0 sec)
nearest neighbour list constructed           ...    0.0 sec
Grid point re-assignment to atoms done       ...    0.0 sec
Grid point division into batches done        ...    0.0 sec
Reduced shell lists constructed in    0.1 sec

Total number of grid points                  ...    23651
Total number of batches                      ...      381
Average number of points per batch           ...       62
Average number of grid points per atom       ...     1126
Average number of shells per batch           ...    65.63 (70.57%)
Average number of basis functions per batch  ...   132.58 (67.99%)
Average number of large shells per batch     ...    48.03 (73.18%)
Average number of large basis fcns per batch ...    98.18 (74.05%)
Maximum spatial batch extension              ...  10.77, 11.88, 14.68 au
[...]
Total number of batches                      ...      331
Average number of points per batch           ...       61
Average number of grid points per atom       ...      974
Average number of shells per batch           ...    66.58 (71.59%)
Average number of basis functions per batch  ...   134.61 (69.03%)
Average number of large shells per batch     ...    49.00 (73.60%)
Average number of large basis fcns per batch ...   100.47 (74.64%)
Maximum spatial batch extension              ...  10.78,  8.85, 15.07 au
Average spatial batch extension              ...   0.36,  0.35,  0.43 au

Overlap Fitting                  UseSFitting ... on
Constructing numerical overlap ... done (      0.0 sec)
Inverting numerical overlap    ... done (      0.0 sec)
Obtaining analytic overlap     ... done (      0.0 sec)
Final contraction and storage  ... done (      0.0 sec)

Time for X-Grid setup             =    0.407 sec
--------------
SCF ITERATIONS
--------------
ITER       Energy         Delta-E        Max-DP      RMS-DP      [F,P]     Damp
               ***  Starting incremental Fock matrix formation  ***
                      *** Initiating the SOSCF procedure ***
                      *** Re-Reading the Fockian *** 
                      *** Removing any level shift *** 
ITER      Energy       Delta-E        Grad      Rot      Max-DP    RMS-DP
  0   -474.44410928 -474.4441092793  0.001460  0.001460  0.005640  0.000136
               *** Restarting incremental Fock matrix formation ***
  1   -474.44446165  -0.0003523722  0.000666  0.002489  0.002775  0.000066
  2   -474.44450668  -0.0000450304  0.000140  0.000480  0.000783  0.000018
  3   -474.44450692  -0.0000002356  0.000226  0.000305  0.000514  0.000009
  4   -474.44450809  -0.0000011726  0.000083  0.000127  0.000307  0.000005
  5   -474.44450802   0.0000000688  0.000067  0.000071  0.000145  0.000003
  6   -474.44450822  -0.0000002010  0.000013  0.000027  0.000049  0.000001
  7   -474.44450821   0.0000000075  0.000011  0.000018  0.000024  0.000001
  8   -474.44450822  -0.0000000102  0.000004  0.000010  0.000019  0.000000
  9   -474.44450823  -0.0000000069  0.000005  0.000006  0.000012  0.000000
                  ***Gradient check signals convergence***
              ***Rediagonalizing the Fockian in SOSCF/NRSCF***

               *****************************************************
               *                     SUCCESS                       *
               *           SCF CONVERGED AFTER  10 CYCLES          *
               *****************************************************

Setting up the final grid:

General Integration Accuracy     IntAcc      ...  4.670
Radial Grid Type                 RadialGrid  ... Gauss-Chebyshev
Angular Grid (max. acc.)         AngularGrid ... Lebedev-302
Angular grid pruning method      GridPruning ... 3 (G Style)
Weight generation scheme         WeightScheme... Becke
Basis function cutoff            BFCut       ...    1.0000e-11
Integration weight cutoff        WCut        ...    1.0000e-14
Grids for H and He will be reduced by one unit

# of grid points (after initial pruning)     ...  99454 (   0.0 sec)
# of grid points (after weights+screening)   ...  91069 (   0.1 sec)
nearest neighbour list constructed           ...    0.0 sec
Grid point re-assignment to atoms done       ...    0.0 sec
Grid point division into batches done        ...    0.4 sec
Reduced shell lists constructed in    0.6 sec

Total number of grid points                  ...    91069
Total number of batches                      ...     1436
Average number of points per batch           ...       63
Average number of grid points per atom       ...     4337
Average number of shells per batch           ...    64.75 (69.62%)
Average number of basis functions per batch  ...   130.63 (66.99%)
Average number of large shells per batch     ...    46.58 (71.94%)
Average number of large basis fcns per batch ...    95.21 (72.88%)
Maximum spatial batch extension              ...  11.66,  9.89, 13.78 au
Average spatial batch extension              ...   0.22,  0.23,  0.25 au

Final grid set up in    0.8 sec
Final integration                            ... done (   0.4 sec)
Change in XC energy                          ...    -0.000246227
Integrated number of electrons               ...    75.999948415
Previous integrated no of electrons          ...    76.002814784
Old exchange energy                            =    -12.597222161 Eh
New exchange energy                            =    -12.596821647 Eh
Exchange energy change after final integration =      0.000400514 Eh
Total energy after final integration           =   -474.444353945 Eh
Final COS-X integration done in                =     3.012 sec

----------------
TOTAL SCF ENERGY
----------------

Total Energy       :         -474.44435395 Eh          -12910.28722 eV

Components:
Nuclear Repulsion  :          492.12413599 Eh           13391.37854 eV
Electronic Energy  :         -966.56848993 Eh          -26301.66576 eV
One Electron Energy:        -1619.27882785 Eh          -44062.81702 eV
Two Electron Energy:          652.71033791 Eh           17761.15125 eV

Virial components:
Potential Energy   :         -945.85764822 Eh          -25738.09511 eV
Kinetic Energy     :          471.41329428 Eh           12827.80789 eV
Virial Ratio       :            2.00642973


DFT components:
N(Alpha)           :       37.999974207556 electrons
N(Beta)            :       37.999974207556 electrons
N(Total)           :       75.999948415111 electrons
E(X)               :      -50.065899458973 Eh       
E(C)               :       -3.012528480556 Eh       
E(XC)              :      -53.078427939529 Eh       

---------------
SCF CONVERGENCE
---------------

  Last Energy change         ...   -7.3044e-11  Tolerance :   1.0000e-08
  Last MAX-Density change    ...    1.8659e-14  Tolerance :   1.0000e-07
  Last RMS-Density change    ...    2.1625e-16  Tolerance :   5.0000e-09
  Last Orbital Gradient      ...    1.2043e-06  Tolerance :   1.0000e-05
  Last Orbital Rotation      ...    3.7103e-06  Tolerance :   1.0000e-05

             **** THE GBW FILE WAS UPDATED (AT-v/e/frag_19_c00001.gbw) ****
             **** DENSITY FILE WAS UPDATED (AT-v/e/frag_19_c00001.scfp.tmp) ****
             **** ENERGY FILE WAS UPDATED (AT-v/e/frag_19_c00001.en.tmp) ****
----------------
ORBITAL ENERGIES
----------------

  NO   OCC          E(Eh)            E(eV) 
   0   2.0000     -19.104194      -519.8515 
   1   2.0000     -14.349557      -390.4713 
   2   2.0000     -14.335711      -390.0945 
   3   2.0000     -14.306891      -389.3103 
   4   2.0000     -10.285544      -279.8839 
   5   2.0000     -10.243831      -278.7488 
   6   2.0000     -10.239328      -278.6263 
   7   2.0000     -10.206212      -277.7251 
   8   2.0000     -10.201774      -277.6044 
   9   2.0000     -10.153789      -276.2986 
  10   2.0000      -1.026394       -27.9296 
  11   2.0000      -0.953499       -25.9460 
  12   2.0000      -0.894113       -24.3301 
  13   2.0000      -0.872867       -23.7519 
  14   2.0000      -0.783177       -21.3113 
  15   2.0000      -0.718759       -19.5584 
  16   2.0000      -0.649415       -17.6715 
  17   2.0000      -0.636080       -17.3086 
  18   2.0000      -0.565287       -15.3822 
  19   2.0000      -0.546107       -14.8603 
  20   2.0000      -0.532046       -14.4777 
  21   2.0000      -0.506814       -13.7911 
  22   2.0000      -0.483753       -13.1636 
  23   2.0000      -0.468757       -12.7555 
  24   2.0000      -0.456807       -12.4304 
  25   2.0000      -0.446111       -12.1393 
  26   2.0000      -0.419924       -11.4267 
  27   2.0000      -0.403518       -10.9803 
  28   2.0000      -0.402400       -10.9499 
  29   2.0000      -0.385997       -10.5035 
  30   2.0000      -0.374731       -10.1969 
  31   2.0000      -0.359796        -9.7905 
  32   2.0000      -0.309997        -8.4354 
  33   2.0000      -0.283474        -7.7137 
  34   2.0000      -0.272764        -7.4223 
  35   2.0000      -0.262230        -7.1356 
  36   2.0000      -0.252146        -6.8612 
  37   2.0000      -0.195224        -5.3123 
  38   0.0000      -0.038819        -1.0563 
  39   0.0000      -0.035440        -0.9644 
  40   0.0000       0.053638         1.4596 
  41   0.0000       0.067077         1.8253 
  42   0.0000       0.079672         2.1680 
  43   0.0000       0.082590         2.2474 
  44   0.0000       0.087742         2.3876 
  45   0.0000       0.095974         2.6116 
  46   0.0000       0.113061         3.0765 
  47   0.0000       0.131230         3.5710 
  48   0.0000       0.140077         3.8117 
  49   0.0000       0.143637         3.9086 
  50   0.0000       0.158650         4.3171 
  51   0.0000       0.192086         5.2269 
  52   0.0000       0.211517         5.7557 
  53   0.0000       0.257727         7.0131 
  54   0.0000       0.271069         7.3762 
  55   0.0000       0.282818         7.6959 
  56   0.0000       0.300672         8.1817 
  57   0.0000       0.315028         8.5724 
  58   0.0000       0.346567         9.4306 
  59   0.0000       0.377365        10.2686 
  60   0.0000       0.392634        10.6841 
  61   0.0000       0.440437        11.9849 
  62   0.0000       0.452058        12.3011 
  63   0.0000       0.458181        12.4677 
  64   0.0000       0.471682        12.8351 
  65   0.0000       0.486289        13.2326 
  66   0.0000       0.492239        13.3945 
  67   0.0000       0.498879        13.5752 
  68   0.0000       0.520632        14.1671 
  69   0.0000       0.522308        14.2127 
  70   0.0000       0.530492        14.4354 
  71   0.0000       0.533669        14.5219 
  72   0.0000       0.546070        14.8593 
  73   0.0000       0.550564        14.9816 
  74   0.0000       0.566140        15.4055 
  75   0.0000       0.582407        15.8481 
  76   0.0000       0.599366        16.3096 
  77   0.0000       0.606072        16.4921 
  78   0.0000       0.620926        16.8963 
  79   0.0000       0.630042        17.1443 
  80   0.0000       0.638000        17.3609 
  81   0.0000       0.647910        17.6305 
  82   0.0000       0.666661        18.1408 
  83   0.0000       0.687793        18.7158 
  84   0.0000       0.693773        18.8785 
  85   0.0000       0.719855        19.5882 
  86   0.0000       0.742618        20.2077 
  87   0.0000       0.746833        20.3224 
  88   0.0000       0.757713        20.6184 
  89   0.0000       0.788491        21.4559 
  90   0.0000       0.799156        21.7461 
  91   0.0000       0.804533        21.8925 
  92   0.0000       0.837550        22.7909 
  93   0.0000       0.859406        23.3856 
  94   0.0000       0.878849        23.9147 
  95   0.0000       0.901737        24.5375 
  96   0.0000       0.914836        24.8939 
  97   0.0000       0.917671        24.9711 
  98   0.0000       0.949195        25.8289 
  99   0.0000       0.956545        26.0289 
 100   0.0000       0.970497        26.4086 
 101   0.0000       0.978821        26.6351 
 102   0.0000       1.013954        27.5911 
 103   0.0000       1.017098        27.6766 
 104   0.0000       1.031180        28.0598 
 105   0.0000       1.045490        28.4492 
 106   0.0000       1.056770        28.7562 
 107   0.0000       1.066742        29.0275 
 108   0.0000       1.081056        29.4170 
 109   0.0000       1.108564        30.1656 
 110   0.0000       1.129729        30.7415 
 111   0.0000       1.154824        31.4244 
 112   0.0000       1.159972        31.5644 
 113   0.0000       1.193696        32.4821 
 114   0.0000       1.223164        33.2840 
 115   0.0000       1.274876        34.6911 
 116   0.0000       1.292110        35.1601 
 117   0.0000       1.315680        35.8015 
 118   0.0000       1.351777        36.7837 
 119   0.0000       1.364952        37.1422 
 120   0.0000       1.390035        37.8248 
 121   0.0000       1.397325        38.0231 
 122   0.0000       1.429537        38.8997 
 123   0.0000       1.451864        39.5072 
 124   0.0000       1.459541        39.7161 
 125   0.0000       1.478303        40.2267 
 126   0.0000       1.487296        40.4714 
 127   0.0000       1.514143        41.2019 
 128   0.0000       1.518097        41.3095 
 129   0.0000       1.531988        41.6875 
 130   0.0000       1.546429        42.0805 
 131   0.0000       1.565120        42.5891 
 132   0.0000       1.584759        43.1235 
 133   0.0000       1.604420        43.6585 
 134   0.0000       1.624685        44.2099 
 135   0.0000       1.630352        44.3641 
 136   0.0000       1.653686        44.9991 
 137   0.0000       1.662437        45.2372 
 138   0.0000       1.669537        45.4304 
 139   0.0000       1.684776        45.8451 
 140   0.0000       1.701520        46.3007 
 141   0.0000       1.711032        46.5595 
 142   0.0000       1.715584        46.6834 
 143   0.0000       1.740097        47.3504 
 144   0.0000       1.755107        47.7589 
 145   0.0000       1.782267        48.4979 
 146   0.0000       1.797644        48.9164 
 147   0.0000       1.859409        50.5971 
 148   0.0000       1.865928        50.7745 
 149   0.0000       1.893963        51.5373 
 150   0.0000       1.897866        51.6436 
 151   0.0000       1.908105        51.9222 
 152   0.0000       1.943015        52.8721 
 153   0.0000       1.957586        53.2686 
 154   0.0000       1.964414        53.4544 
 155   0.0000       1.994108        54.2624 
 156   0.0000       2.027324        55.1663 
 157   0.0000       2.059098        56.0309 
 158   0.0000       2.107360        57.3442 
 159   0.0000       2.112475        57.4834 
 160   0.0000       2.131369        57.9975 
 161   0.0000       2.173249        59.1371 
 162   0.0000       2.180575        59.3365 
 163   0.0000       2.235527        60.8318 
 164   0.0000       2.241705        60.9999 
 165   0.0000       2.264664        61.6246 
 166   0.0000       2.269643        61.7601 
 167   0.0000       2.276436        61.9450 
 168   0.0000       2.311234        62.8919 
 169   0.0000       2.319140        63.1070 
 170   0.0000       2.352886        64.0253 
 171   0.0000       2.365639        64.3723 
 172   0.0000       2.389044        65.0092 
 173   0.0000       2.413367        65.6711 
 174   0.0000       2.506883        68.2158 
 175   0.0000       2.511011        68.3281 
 176   0.0000       2.551601        69.4326 
 177   0.0000       2.586934        70.3941 
 178   0.0000       2.623398        71.3863 
 179   0.0000       2.651637        72.1547 
 180   0.0000       2.657796        72.3223 
 181   0.0000       2.709455        73.7280 
 182   0.0000       2.730113        74.2902 
 183   0.0000       2.744927        74.6932 
 184   0.0000       2.814729        76.5927 
 185   0.0000       2.847125        77.4742 
 186   0.0000       2.894408        78.7608 
 187   0.0000       2.906557        79.0914 
 188   0.0000       2.958376        80.5015 
 189   0.0000       3.094989        84.2189 
 190   0.0000       3.137652        85.3799 
 191   0.0000       3.189738        86.7972 
 192   0.0000       3.280251        89.2602 
 193   0.0000       3.446338        93.7796 
 194   0.0000       3.524298        95.9010 
-------
TIMINGS
-------

Total SCF time: 0 days 0 hours 0 min 22 sec 

Total time                  ....      22.539 sec
Sum of individual times     ....      22.445 sec  ( 99.6%)

Fock matrix formation       ....      20.864 sec  ( 92.6%)
  Split-RI-J                ....       3.268 sec  ( 15.7% of F)
  Chain of spheres X        ....      16.147 sec  ( 77.4% of F)
  COS-X 1 center corr.      ....       0.000 sec  (  0.0% of F)
  XC integration            ....       1.392 sec  (  6.7% of F)
    Basis function eval.    ....       0.545 sec  ( 39.2% of XC)
    Density eval.           ....       0.242 sec  ( 17.4% of XC)
    XC-Functional eval.     ....       0.062 sec  (  4.5% of XC)
    XC-Potential eval.      ....       0.431 sec  ( 31.0% of XC)
Diagonalization             ....       0.012 sec  (  0.1%)
Density matrix formation    ....       0.013 sec  (  0.1%)
Population analysis         ....       0.000 sec  (  0.0%)
Initial guess               ....       0.012 sec  (  0.1%)
Orbital Transformation      ....       0.000 sec  (  0.0%)
Orbital Orthonormalization  ....       0.008 sec  (  0.0%)
DIIS solution               ....       0.003 sec  (  0.0%)
SOSCF solution              ....       0.194 sec  (  0.9%)
Grid generation             ....       1.348 sec  (  6.0%)


-------------------------------------------------------------------------------
                          DFT DISPERSION CORRECTION                            
                                                                               
                              DFTD3 V3.1  Rev 1                                
                          USING Becke-Johnson damping                          
-------------------------------------------------------------------------------
The B3LYP functional is recognized
Active option DFTDOPT                   ...         4   

molecular C6(AA) [au] = 4273.561020 


            DFT-D V3
 parameters
 s6 scaling factor         :     1.0000 
 a1 scaling factor         :     0.3981 
 s8 scaling factor         :     1.9889 
 a2 scaling factor         :     4.4211 
 ad hoc parameters k1-k3   :    16.0000     1.3333    -4.0000 

 Edisp/kcal,au: -19.016805105818  -0.030305204723 
 E6   /kcal   :  -9.309275620 
 E8   /kcal   :  -9.707529486 
 % E8         :  51.047110341 

-------------------------   ----------------
Dispersion correction           -0.030305205
-------------------------   ----------------


-------------------------   --------------------
FINAL SINGLE POINT ENERGY      -474.474659150067
-------------------------   --------------------

                                *** OPTIMIZATION RUN DONE ***

                            ***************************************
                            *     ORCA property calculations      *
                            ***************************************

                                    ---------------------
                                    Active property flags
                                    ---------------------
   (+) Dipole Moment


------------------------------------------------------------------------------
                       ORCA ELECTRIC PROPERTIES CALCULATION
------------------------------------------------------------------------------

Dipole Moment Calculation                       ... on
Quadrupole Moment Calculation                   ... off
Polarizability Calculation                      ... off
GBWName                                         ... AT-v/e/frag_19_c00001.gbw
Electron density file                           ... AT-v/e/frag_19_c00001.scfp.tmp
The origin for moment calculation is the CENTER OF MASS  = (-1.118835, -0.660048 -0.061203)

-------------
DIPOLE MOMENT
-------------
                                X             Y             Z
Electronic contribution:     -1.68761      -1.96165      -0.98370
Nuclear contribution   :      1.24946       3.24078       0.92348
                        -----------------------------------------
Total Dipole Moment    :     -0.43815       1.27913      -0.06022
                        -----------------------------------------
Magnitude (a.u.)       :      1.35343
Magnitude (Debye)      :      3.44015


Timings for individual modules:

Sum of individual times         ...      576.599 sec (=   9.610 min)
GTO integral calculation        ...       15.981 sec (=   0.266 min)   2.8 %
SCF iterations                  ...      449.959 sec (=   7.499 min)  78.0 %
SCF Gradient evaluation         ...      108.714 sec (=   1.812 min)  18.9 %
Geometry relaxation             ...        1.945 sec (=   0.032 min)   0.3 %
                             ****ORCA TERMINATED NORMALLY****
TOTAL RUN TIME: 0 days 0 hours 9 minutes 41 seconds 328 msec
