
                                 *****************
                                 * O   R   C   A *
                                 *****************

           --- An Ab Initio, DFT and Semiempirical electronic structure package ---

                  #######################################################
                  #                        -***-                        #
                  #  Department of molecular theory and spectroscopy    #
                  #              Directorship: Frank Neese              #
                  # Max Planck Institute for Chemical Energy Conversion #
                  #                  D-45470 Muelheim/Ruhr              #
                  #                       Germany                       #
                  #                                                     #
                  #                  All rights reserved                #
                  #                        -***-                        #
                  #######################################################


                         Program Version 4.0.1.2 - RELEASE -


 With contributions from (in alphabetic order):
   Daniel Aravena         : Magnetic Properties
   Michael Atanasov       : Ab Initio Ligand Field Theory
   Ute Becker             : Parallelization
   Martin Brehm           : Molecular dynamics
   Dmytro Bykov           : SCF Hessian
   Vijay G. Chilkuri      : MRCI spin determinant printing
   Dipayan Datta          : RHF DLPNO-CCSD density
   Achintya Kumar Dutta   : EOM-CC, STEOM-CC
   Dmitry Ganyushin       : Spin-Orbit,Spin-Spin,Magnetic field MRCI
   Yang Guo               : DLPNO-NEVPT2, CIM, IAO-localization
   Andreas Hansen         : Spin unrestricted coupled pair/coupled cluster methods
   Lee Huntington         : MR-EOM, pCC
   Robert Izsak           : Overlap fitted RIJCOSX, COSX-SCS-MP3, EOM
   Christian Kollmar      : KDIIS, OOCD, Brueckner-CCSD(T), CCSD density
   Simone Kossmann        : Meta GGA functionals, TD-DFT gradient, OOMP2, MP2 Hessian
   Martin Krupicka        : AUTO-CI
   Dagmar Lenk            : GEPOL surface
   Dimitrios Liakos       : Extrapolation schemes; parallel MDCI
   Dimitrios Manganas     : ROCIS; embedding schemes
   Dimitrios Pantazis     : SARC Basis sets
   Taras Petrenko         : DFT Hessian,TD-DFT gradient, ASA, ECA, R-Raman, ABS, FL, XAS/XES, NRVS
   Peter Pinski           : DLPNO-MP2
   Christoph Reimann      : Effective Core Potentials
   Marius Retegan         : Local ZFS, SOC
   Christoph Riplinger    : Optimizer, TS searches, QM/MM, DLPNO-CCSD(T), (RO)-DLPNO pert. Triples
   Tobias Risthaus        : Range-separated hybrids, TD-DFT gradient, RPA, STAB
   Michael Roemelt        : Restricted open shell CIS
   Masaaki Saitow         : Open-shell DLPNO
   Barbara Sandhoefer     : DKH picture change effects
   Kantharuban Sivalingam : CASSCF convergence, NEVPT2, FIC-MRCI
   Georgi Stoychev        : AutoAux
   Boris Wezisla          : Elementary symmetry handling
   Frank Wennmohs         : Technical directorship


 We gratefully acknowledge several colleagues who have allowed us to
 interface, adapt or use parts of their codes:
   Stefan Grimme, W. Hujo, H. Kruse,             : VdW corrections, initial TS optimization,
                  C. Bannwarth                     DFT functionals, gCP, sTDA/sTD-DF
   Ed Valeev                                     : LibInt (2-el integral package), F12 methods
   Garnet Chan, S. Sharma, J. Yang, R. Olivares  : DMRG
   Ulf Ekstrom                                   : XCFun DFT Library
   Mihaly Kallay                                 : mrcc  (arbitrary order and MRCC methods)
   Andreas Klamt, Michael Diedenhofen            : otool_cosmo (COSMO solvation model)
   Jiri Pittner, Ondrej Demel                    : Mk-CCSD
   Frank Weinhold                                : gennbo (NPA and NBO analysis)
   Christopher J. Cramer and Donald G. Truhlar   : smd solvation model


 Your calculation uses the libint2 library for the computation of 2-el integrals
 For citations please refer to: http://libint.valeyev.net

 This ORCA versions uses:
   CBLAS   interface :  Fast vector & matrix operations
   LAPACKE interface :  Fast linear algebra routines
   SCALAPACK package :  Parallel linear algebra routines


Your calculation utilizes the atom-pairwise dispersion correction
with the Becke-Johnson damping scheme (D3BJ)
Cite in your paper:
S.Grimme, S.Ehrlich, L.Goerigk, J Comput Chem, (2011), 32, 1456–1465 
S.Grimme, J.Antony, S.Ehrlich and H.Krieg, J.Chem.Phys., 132, (2010), 154104 
   

Your calculation utilizes the basis: cc-pVDZ 
       H, B-Ne : Obtained from the ccRepo (grant-hill.group.shef.ac.uk/ccrepo) Feb. 2017
                 T. H. Dunning, Jr., J. Chem. Phys. 90, 1007 (1989)
            He : Obtained from the ccRepo (grant-hill.group.shef.ac.uk/ccrepo) Feb. 2017
                 D. E. Woon, T. H. Dunning, Jr., J. Chem. Phys. 100, 2975 (1994)
  Li-Be, Na-Mg : Obtained from the ccRepo (grant-hill.group.shef.ac.uk/ccrepo) Feb. 2017
                 B. P. Prascher, D. E. Woon, K. A. Peterson, T. H. Dunning, Jr., A. K. Wilson, Theor. Chem. Acc. 128, 69 (2011)
         Al-Ar : Obtained from the ccRepo (grant-hill.group.shef.ac.uk/ccrepo) Feb. 2017
                 D. E. Woon, T. H. Dunning, Jr., J. Chem. Phys. 98, 1358 (1993)
            Ca : Obtained from the Peterson Research Group Website (tyr0.chem.wsu.edu/~kipeters) Feb. 2017
                 J. Koput, K. A. Peterson, J. Phys. Chem. 106, 9595 (2002)
         Sc-Zn : Obtained from the ccRepo (grant-hill.group.shef.ac.uk/ccrepo) Feb. 2017
                 N. B. Balabanov, K. A. Peterson, J. Chem. Phys. 123, 064107 (2005)
                 N. B. Balabanov, K. A. Peterson, J. Chem. Phys. 125, 074110 (2006)
         Ga-Kr : Obtained from the ccRepo (grant-hill.group.shef.ac.uk/ccrepo) Feb. 2017
                 A. K. Wilson, D. E. Woon, K. A. Peterson, T. H. Dunning, Jr., J. Chem. Phys. 110, 7667 (1999)

Your calculation utilizes the auxiliary basis: def2/J
   F. Weigend, Phys. Chem. Chem. Phys. 8, 1057 (2006).

================================================================================
                                        WARNINGS
                       Please study these warnings very carefully!
================================================================================

Warning: TCutStore was < 0. Adjusted to Thresh (uncritical)

WARNING: Geometry Optimization
  ===> : Switching off AutoStart
         For restart on a previous wavefunction, please use MOREAD

INFO   : the flag for use of LIBINT has been found!

================================================================================
                                       INPUT FILE
================================================================================
NAME = AT-v/e/frag_23_c00001.com
|  1> %pal nprocs 6 end
|  2> %maxcore 1000
|  3> ! b3lyp TIGHTSCF nopop D3BJ
|  4> ! cc-pvdz def2/J RIJCOSX
|  5> ! Opt
|  6> 
|  7> %geom
|  8> maxiter 60
|  9> TolE 1e-4
| 10> TolRMSG 2e-3
| 11> TolMaxG 3e-3
| 12> TolRMSD 2e-2
| 13> TolMaxD 3e-2
| 14> end
| 15> 
| 16> *xyz 0 1
| 17> N 4.0302 -1.5322 0.0072
| 18> C 3.1268 -0.5771 -0.0059
| 19> C 1.6388 -0.7098 0.0059
| 20> N 1.0499 -1.9215 0.0332
| 21> N 0.9285 0.3964 -0.0044
| 22> N -3.8372 1.5878 -0.022
| 23> C -2.4658 1.6361 -0.0082
| 24> O -1.8608 2.6992 -0.0037
| 25> N -1.8487 0.4055 -0.0001
| 26> C -2.4546 -0.8245 -0.0116
| 27> O -1.8312 -1.8882 0.0045
| 28> H 4.9469 -1.0639 -0.0152
| 29> H 3.4784 0.4499 -0.0323
| 30> H 1.6196 -2.7567 0.1618
| 31> H 0.0365 -2.0043 0.1121
| 32> H 1.5402 1.2194 -0.0307
| 33> H -4.4071 0.8079 0.2863
| 34> H -4.3147 2.4715 0.0341
| 35> H -0.8219 0.4185 0.0026
| 36> H -3.5531 -0.829 -0.0403
| 37> *
| 38> 
| 39> 
| 40>                          ****END OF INPUT****
================================================================================

                       *****************************
                       * Geometry Optimization Run *
                       *****************************

Geometry optimization settings:
Update method            Update   .... BFGS
Choice of coordinates    CoordSys .... Redundant Internals
Initial Hessian          InHess   .... Almoef's Model

Convergence Tolerances:
Energy Change            TolE     ....  1.0000e-04 Eh
Max. Gradient            TolMAXG  ....  3.0000e-03 Eh/bohr
RMS Gradient             TolRMSG  ....  2.0000e-03 Eh/bohr
Max. Displacement        TolMAXD  ....  3.0000e-02 bohr
RMS Displacement         TolRMSD  ....  2.0000e-02 bohr

------------------------------------------------------------------------------
                        ORCA OPTIMIZATION COORDINATE SETUP
------------------------------------------------------------------------------

The optimization will be done in new redundant internal coordinates
Making redundant internal coordinates   ...  (new redundants) done
Evaluating the initial hessian          ...  (Almloef) done
Evaluating the coordinates              ...  done
Calculating the B-matrix                .... done
Calculating the G-matrix                .... done
Diagonalizing the G-matrix              .... done
Small eigenvalue found = 1.630e-02
The first mode is                       ....   30
The number of degrees of freedom        ....   54

    -----------------------------------------------------------------
                    Redundant Internal Coordinates


    -----------------------------------------------------------------
         Definition                    Initial Value    Approx d2E/dq
    -----------------------------------------------------------------
      1. B(C   1,N   0)                  1.3147         0.737839   
      2. B(C   2,C   1)                  1.4940         0.426471   
      3. B(N   3,C   2)                  1.3475         0.654148   
      4. B(N   4,C   2)                  1.3147         0.738054   
      5. B(C   6,N   5)                  1.3723         0.597150   
      6. B(O   7,C   6)                  1.2232         1.032734   
      7. B(N   8,C   6)                  1.3767         0.587656   
      8. B(C   9,N   8)                  1.3712         0.599645   
      9. B(O  10,C   9)                  1.2330         0.996146   
     10. B(H  11,N   0)                  1.0296         0.402597   
     11. B(H  12,C   1)                  1.0858         0.365645   
     12. B(H  13,N   3)                  1.0191         0.418414   
     13. B(H  14,N   3)                  1.0198         0.417355   
     14. B(H  14,O  10)                  1.8744         0.018076   
     15. B(H  15,N   4)                  1.0258         0.408357   
     16. B(H  16,N   5)                  1.0139         0.426487   
     17. B(H  17,N   5)                  1.0060         0.439079   
     18. B(H  18,N   4)                  1.7506         0.028490   
     19. B(H  18,N   8)                  1.0269         0.406682   
     20. B(H  19,C   9)                  1.0989         0.348537   
     21. A(C   1,N   0,H  11)          106.3284         0.364959   
     22. A(N   0,C   1,C   2)          128.3010         0.416068   
     23. A(N   0,C   1,H  12)          117.6998         0.362195   
     24. A(C   2,C   1,H  12)          113.9988         0.332319   
     25. A(N   3,C   2,N   4)          121.3773         0.446379   
     26. A(C   1,C   2,N   4)          117.6028         0.416089   
     27. A(C   1,C   2,N   3)          121.0190         0.407276   
     28. A(C   2,N   3,H  14)          120.5871         0.359738   
     29. A(C   2,N   3,H  13)          119.6814         0.359893   
     30. A(H  13,N   3,H  14)          118.6315         0.299903   
     31. A(H  15,N   4,H  18)          125.8917         0.203241   
     32. A(C   2,N   4,H  18)          123.4246         0.240546   
     33. A(C   2,N   4,H  15)          110.6779         0.365866   
     34. A(H  16,N   5,H  17)          113.0739         0.303264   
     35. A(C   6,N   5,H  17)          116.2857         0.357272   
     36. A(C   6,N   5,H  16)          125.8525         0.355511   
     37. A(O   7,C   6,N   8)          123.7217         0.465370   
     38. A(N   5,C   6,N   8)          114.6169         0.421482   
     39. A(N   5,C   6,O   7)          121.6613         0.466737   
     40. A(C   9,N   8,H  18)          116.9506         0.352907   
     41. A(C   6,N   8,H  18)          115.9071         0.351704   
     42. A(C   6,N   8,C   9)          127.1372         0.421796   
     43. A(O  10,C   9,H  19)          120.1469         0.378246   
     44. A(N   8,C   9,H  19)          116.4629         0.346855   
     45. A(N   8,C   9,O  10)          123.3898         0.464020   
     46. A(C   9,O  10,H  14)          123.9151         0.235319   
     47. A(N   3,H  14,O  10)          168.7167         0.192573   
     48. L(N   4,H  18,N   8,C   9, 2) 180.5976         0.203135   
     49. L(N   4,H  18,N   8,C   9, 1) 178.5467         0.203135   
     50. D(H  12,C   1,N   0,H  11)     -0.1926         0.041203   
     51. D(C   2,C   1,N   0,H  11)    179.5613         0.041203   
     52. D(N   4,C   2,C   1,N   0)    179.6582         0.012434   
     53. D(N   3,C   2,C   1,N   0)     -0.0025         0.012434   
     54. D(N   4,C   2,C   1,H  12)     -0.5803         0.012434   
     55. D(N   3,C   2,C   1,H  12)    179.7589         0.012434   
     56. D(H  13,N   3,C   2,C   1)      7.5147         0.034961   
     57. D(H  14,N   3,C   2,C   1)    175.3615         0.034961   
     58. D(H  14,N   3,C   2,N   4)     -4.2863         0.034961   
     59. D(H  13,N   3,C   2,N   4)   -172.1332         0.034961   
     60. D(H  18,N   4,C   2,N   3)     -0.5152         0.045581   
     61. D(H  15,N   4,C   2,N   3)   -179.6850         0.045581   
     62. D(H  15,N   4,C   2,C   1)      0.6555         0.045581   
     63. D(H  18,N   4,C   2,C   1)    179.8254         0.045581   
     64. D(O   7,C   6,N   5,H  16)   -157.6237         0.028714   
     65. D(N   8,C   6,N   5,H  17)    176.0420         0.028714   
     66. D(N   8,C   6,N   5,H  16)     22.3772         0.028714   
     67. D(O   7,C   6,N   5,H  17)     -3.9589         0.028714   
     68. D(H  18,N   8,C   6,O   7)     -0.4747         0.027746   
     69. D(H  18,N   8,C   6,N   5)    179.5244         0.027746   
     70. D(C   9,N   8,C   6,O   7)   -179.6203         0.027746   
     71. D(C   9,N   8,C   6,N   5)      0.3788         0.027746   
     72. D(C   9,N   8,N   4,H  15)    177.6614         0.001501   
     73. D(C   9,N   8,N   4,C   2)     -1.1701         0.001501   
     74. D(C   6,N   8,N   4,H  15)     -1.3379         0.001501   
     75. D(C   6,N   8,N   4,C   2)    179.8306         0.001501   
     76. D(H  19,C   9,N   8,H  18)   -178.4921         0.028971   
     77. D(H  19,C   9,N   8,C   6)      0.6457         0.028971   
     78. D(O  10,C   9,N   8,H  18)      1.2882         0.028971   
     79. D(O  10,C   9,N   8,C   6)   -179.5740         0.028971   
     80. D(H  14,O  10,C   9,N   8)      2.3940         0.081190   
     81. D(H  14,O  10,C   9,H  19)   -177.8334         0.081190   
     82. D(N   3,H  14,O  10,C   9)    -44.4893         0.001652   
     83. D(O  10,H  14,N   3,H  13)   -147.6576         0.197365   
     84. D(O  10,H  14,N   3,C   2)     44.3701         0.197365   
    -----------------------------------------------------------------

Number of atoms                         .... 20
Number of degrees of freedom            .... 84

         *************************************************************
         *                GEOMETRY OPTIMIZATION CYCLE   1            *
         *************************************************************
---------------------------------
CARTESIAN COORDINATES (ANGSTROEM)
---------------------------------
  N      4.030200   -1.532200    0.007200
  C      3.126800   -0.577100   -0.005900
  C      1.638800   -0.709800    0.005900
  N      1.049900   -1.921500    0.033200
  N      0.928500    0.396400   -0.004400
  N     -3.837200    1.587800   -0.022000
  C     -2.465800    1.636100   -0.008200
  O     -1.860800    2.699200   -0.003700
  N     -1.848700    0.405500   -0.000100
  C     -2.454600   -0.824500   -0.011600
  O     -1.831200   -1.888200    0.004500
  H      4.946900   -1.063900   -0.015200
  H      3.478400    0.449900   -0.032300
  H      1.619600   -2.756700    0.161800
  H      0.036500   -2.004300    0.112100
  H      1.540200    1.219400   -0.030700
  H     -4.407100    0.807900    0.286300
  H     -4.314700    2.471500    0.034100
  H     -0.821900    0.418500    0.002600
  H     -3.553100   -0.829000   -0.040300

----------------------------
CARTESIAN COORDINATES (A.U.)
----------------------------
  NO LB      ZA    FRAG     MASS         X           Y           Z
   0 N     7.0000    0    14.007    7.615974   -2.895438    0.013606
   1 C     6.0000    0    12.011    5.908796   -1.090561   -0.011149
   2 C     6.0000    0    12.011    3.096883   -1.341328    0.011149
   3 N     7.0000    0    14.007    1.984023   -3.631109    0.062739
   4 N     7.0000    0    14.007    1.754611    0.749087   -0.008315
   5 N     7.0000    0    14.007   -7.251257    3.000507   -0.041574
   6 C     6.0000    0    12.011   -4.659687    3.091781   -0.015496
   7 O     8.0000    0    15.999   -3.516402    5.100749   -0.006992
   8 N     7.0000    0    14.007   -3.493537    0.766284   -0.000189
   9 C     6.0000    0    12.011   -4.638522   -1.558079   -0.021921
  10 O     8.0000    0    15.999   -3.460466   -3.568181    0.008504
  11 H     1.0000    0     1.008    9.348286   -2.010480   -0.028724
  12 H     1.0000    0     1.008    6.573223    0.850188   -0.061038
  13 H     1.0000    0     1.008    3.060600   -5.209408    0.305758
  14 H     1.0000    0     1.008    0.068975   -3.787578    0.211838
  15 H     1.0000    0     1.008    2.910556    2.304332   -0.058015
  16 H     1.0000    0     1.008   -8.328212    1.526710    0.541029
  17 H     1.0000    0     1.008   -8.153601    4.670458    0.064440
  18 H     1.0000    0     1.008   -1.553166    0.790850    0.004913
  19 H     1.0000    0     1.008   -6.714386   -1.566583   -0.076156

--------------------------------
INTERNAL COORDINATES (ANGSTROEM)
--------------------------------
 N      0   0   0     0.000000000000     0.00000000     0.00000000
 C      1   0   0     1.314731599985     0.00000000     0.00000000
 C      2   1   0     1.493951983833   128.30098195     0.00000000
 N      3   2   1     1.347503391461   121.01899519     0.00000000
 N      3   2   1     1.314652281023   117.60283171   179.65822804
 N      5   3   2     4.912396585171   136.74089728   179.43207558
 C      6   5   3     1.372319674857    16.05693502   178.19309107
 O      7   6   5     1.223203523540   121.66134734   178.63251314
 N      7   6   5     1.376682381670   114.61691041   358.63336245
 C      9   7   6     1.371184546296   127.13718637     0.37881333
 O     10   9   7     1.233022489657   123.38982162   180.42604607
 H      1   2   3     1.029633692145   106.32838998   179.56130137
 H      2   1   3     1.085840006631   117.69977766   180.24612801
 H      4   3   2     1.019144293022   119.68139965     7.51471566
 H      4   3   2     1.019833618783   120.58713472   175.36152898
 H      5   3   2     1.025766825356   110.67786929     0.65550526
 H      6   5   3     1.013942261670   110.95544472    18.64808067
 H      6   5   3     1.006021446093   132.32293145   175.05009696
 H      9   7   6     1.026885840783   115.90709917   179.52441812
 H     10   9   7     1.098884065769   116.46293158     0.64571806

---------------------------
INTERNAL COORDINATES (A.U.)
---------------------------
 N      0   0   0     0.000000000000     0.00000000     0.00000000
 C      1   0   0     2.484482663584     0.00000000     0.00000000
 C      2   1   0     2.823160106674   128.30098195     0.00000000
 N      3   2   1     2.546412374392   121.01899519     0.00000000
 N      3   2   1     2.484332772469   117.60283171   179.65822804
 N      5   3   2     9.283084207183   136.74089728   179.43207558
 C      6   5   3     2.593308353672    16.05693502   178.19309107
 O      7   6   5     2.311519665538   121.66134734   178.63251314
 N      7   6   5     2.601552674750   114.61691041   358.63336245
 C      9   7   6     2.591163271564   127.13718637     0.37881333
 O     10   9   7     2.330074822418   123.38982162   180.42604607
 H      1   2   3     1.945725696412   106.32838998   179.56130137
 H      2   1   3     2.051940237787   117.69977766   180.24612801
 H      4   3   2     1.925903604761   119.68139965     7.51471566
 H      4   3   2     1.927206241666   120.58713472   175.36152898
 H      5   3   2     1.938418377184   110.67786929     0.65550526
 H      6   5   3     1.916073190165   110.95544472    18.64808067
 H      6   5   3     1.901105017968   132.32293145   175.05009696
 H      9   7   6     1.940533009881   115.90709917   179.52441812
 H     10   9   7     2.076589937232   116.46293158     0.64571806

---------------------
BASIS SET INFORMATION
---------------------
There are 4 groups of distinct atoms

 Group   1 Type N   : 17s4p1d contracted to 3s2p1d pattern {881/31/1}
 Group   2 Type C   : 17s4p1d contracted to 3s2p1d pattern {881/31/1}
 Group   3 Type O   : 17s4p1d contracted to 3s2p1d pattern {881/31/1}
 Group   4 Type H   : 4s1p contracted to 2s1p pattern {31/1}

Atom   0N    basis set group =>   1
Atom   1C    basis set group =>   2
Atom   2C    basis set group =>   2
Atom   3N    basis set group =>   1
Atom   4N    basis set group =>   1
Atom   5N    basis set group =>   1
Atom   6C    basis set group =>   2
Atom   7O    basis set group =>   3
Atom   8N    basis set group =>   1
Atom   9C    basis set group =>   2
Atom  10O    basis set group =>   3
Atom  11H    basis set group =>   4
Atom  12H    basis set group =>   4
Atom  13H    basis set group =>   4
Atom  14H    basis set group =>   4
Atom  15H    basis set group =>   4
Atom  16H    basis set group =>   4
Atom  17H    basis set group =>   4
Atom  18H    basis set group =>   4
Atom  19H    basis set group =>   4
-------------------------------
AUXILIARY BASIS SET INFORMATION
-------------------------------
There are 4 groups of distinct atoms

 Group   1 Type N   : 12s5p4d2f1g contracted to 6s4p3d1f1g pattern {711111/2111/211/2/1}
 Group   2 Type C   : 12s5p4d2f1g contracted to 6s4p3d1f1g pattern {711111/2111/211/2/1}
 Group   3 Type O   : 12s5p4d2f1g contracted to 6s4p3d1f1g pattern {711111/2111/211/2/1}
 Group   4 Type H   : 5s2p1d contracted to 3s1p1d pattern {311/2/1}

Atom   0N    basis set group =>   1
Atom   1C    basis set group =>   2
Atom   2C    basis set group =>   2
Atom   3N    basis set group =>   1
Atom   4N    basis set group =>   1
Atom   5N    basis set group =>   1
Atom   6C    basis set group =>   2
Atom   7O    basis set group =>   3
Atom   8N    basis set group =>   1
Atom   9C    basis set group =>   2
Atom  10O    basis set group =>   3
Atom  11H    basis set group =>   4
Atom  12H    basis set group =>   4
Atom  13H    basis set group =>   4
Atom  14H    basis set group =>   4
Atom  15H    basis set group =>   4
Atom  16H    basis set group =>   4
Atom  17H    basis set group =>   4
Atom  18H    basis set group =>   4
Atom  19H    basis set group =>   4


           ************************************************************
           *        Program running with 6 parallel MPI-processes     *
           *              working on a common directory               *
           ************************************************************
------------------------------------------------------------------------------
                           ORCA GTO INTEGRAL CALCULATION
                           -- RI-GTO INTEGRALS CHOSEN --
------------------------------------------------------------------------------

                         BASIS SET STATISTICS AND STARTUP INFO

Gaussian basis set:
 # of primitive gaussian shells          ...  287
 # of primitive gaussian functions       ...  437
 # of contracted shells                  ...   93
 # of contracted basis functions         ...  199
 Highest angular momentum                ...    2
 Maximum contraction depth               ...    8
Auxiliary gaussian basis set:
 # of primitive gaussian shells          ...  336
 # of primitive gaussian functions       ...  914
 # of contracted shells                  ...  210
 # of contracted aux-basis functions     ...  638
 Highest angular momentum                ...    4
 Maximum contraction depth               ...    7
Ratio of auxiliary to basis functions    ...  3.21
Integral package used                  ... LIBINT
 One Electron integrals                  ... done
 Ordering auxiliary basis shells         ... done
 Integral threshhold             Thresh  ...  2.500e-11
 Primitive cut-off               TCut    ...  2.500e-12
 Pre-screening matrix                    ... done
 Shell pair data                         ... 
 Ordering of the shell pairs             ... done (   0.001 sec) 3674 of 4371 pairs
 Determination of significant pairs      ... done (   0.000 sec)
 Creation of shell pair data             ... done (   0.002 sec)
 Storage of shell pair data              ... done (   0.003 sec)
 Shell pair data done in (   0.005 sec)
 Computing two index integrals           ... done
 Cholesky decomposition of the V-matrix  ... done


Timings:
 Total evaluation time                   ...   0.417 sec (  0.007 min)
 One electron matrix time                ...   0.050 sec (  0.001 min) = 12.0%
 Schwartz matrix evaluation time         ...   0.299 sec (  0.005 min) = 71.7%
 Two index repulsion integral time       ...   0.025 sec (  0.000 min) =  5.9%
 Cholesky decomposition of V             ...   0.017 sec (  0.000 min) =  4.1%
 Three index repulsion integral time     ...   0.000 sec (  0.000 min) =  0.0%



           ************************************************************
           *        Program running with 6 parallel MPI-processes     *
           *              working on a common directory               *
           ************************************************************
-------------------------------------------------------------------------------
                                 ORCA SCF
-------------------------------------------------------------------------------

------------
SCF SETTINGS
------------
Hamiltonian:
 Density Functional     Method          .... DFT(GTOs)
 Exchange Functional    Exchange        .... B88
   X-Alpha parameter    XAlpha          ....  0.666667
   Becke's b parameter  XBeta           ....  0.004200
 Correlation Functional Correlation     .... LYP
 LDA part of GGA corr.  LDAOpt          .... VWN-5
 Gradients option       PostSCFGGA      .... off
 Hybrid DFT is turned on
   Fraction HF Exchange ScalHFX         ....  0.200000
   Scaling of DF-GGA-X  ScalDFX         ....  0.720000
   Scaling of DF-GGA-C  ScalDFC         ....  0.810000
   Scaling of DF-LDA-C  ScalLDAC        ....  1.000000
   Perturbative correction              ....  0.000000
   NL short-range parameter             ....  4.800000
 RI-approximation to the Coulomb term is turned on
   Number of auxiliary basis functions  .... 638
   RIJ-COSX (HFX calculated with COS-X)).... on


General Settings:
 Integral files         IntName         .... AT-v/e/frag_23_c00001
 Hartree-Fock type      HFTyp           .... RHF
 Total Charge           Charge          ....    0
 Multiplicity           Mult            ....    1
 Number of Electrons    NEL             ....   84
 Basis Dimension        Dim             ....  199
 Nuclear Repulsion      ENuc            ....    586.3756867532 Eh

Convergence Acceleration:
 DIIS                   CNVDIIS         .... on
   Start iteration      DIISMaxIt       ....    12
   Startup error        DIISStart       ....  0.200000
   # of expansion vecs  DIISMaxEq       ....     5
   Bias factor          DIISBfac        ....   1.050
   Max. coefficient     DIISMaxC        ....  10.000
 Newton-Raphson         CNVNR           .... off
 SOSCF                  CNVSOSCF        .... on
   Start iteration      SOSCFMaxIt      ....   150
   Startup grad/error   SOSCFStart      ....  0.003300
 Level Shifting         CNVShift        .... on
   Level shift para.    LevelShift      ....    0.2500
   Turn off err/grad.   ShiftErr        ....    0.0010
 Zerner damping         CNVZerner       .... off
 Static damping         CNVDamp         .... on
   Fraction old density DampFac         ....    0.7000
   Max. Damping (<1)    DampMax         ....    0.9800
   Min. Damping (>=0)   DampMin         ....    0.0000
   Turn off err/grad.   DampErr         ....    0.1000
 Fernandez-Rico         CNVRico         .... off

SCF Procedure:
 Maximum # iterations   MaxIter         ....   125
 SCF integral mode      SCFMode         .... Direct
   Integral package                     .... LIBINT
 Reset frequeny         DirectResetFreq ....    20
 Integral Threshold     Thresh          ....  2.500e-11 Eh
 Primitive CutOff       TCut            ....  2.500e-12 Eh

Convergence Tolerance:
 Convergence Check Mode ConvCheckMode   .... Total+1el-Energy
 Convergence forced     ConvForced      .... 0
 Energy Change          TolE            ....  1.000e-08 Eh
 1-El. energy change                    ....  1.000e-05 Eh
 Orbital Gradient       TolG            ....  1.000e-05
 Orbital Rotation angle TolX            ....  1.000e-05
 DIIS Error             TolErr          ....  5.000e-07


Diagonalization of the overlap matrix:
Smallest eigenvalue                        ... 2.403e-03
Time for diagonalization                   ...    0.010 sec
Threshold for overlap eigenvalues          ... 1.000e-08
Number of eigenvalues below threshold      ... 0
Time for construction of square roots      ...    0.005 sec
Total time needed                          ...    0.015 sec

-------------------
DFT GRID GENERATION
-------------------

General Integration Accuracy     IntAcc      ...  4.340
Radial Grid Type                 RadialGrid  ... Gauss-Chebyshev
Angular Grid (max. acc.)         AngularGrid ... Lebedev-110
Angular grid pruning method      GridPruning ... 3 (G Style)
Weight generation scheme         WeightScheme... Becke
Basis function cutoff            BFCut       ...    1.0000e-11
Integration weight cutoff        WCut        ...    1.0000e-14
Grids for H and He will be reduced by one unit

# of grid points (after initial pruning)     ...  25712 (   0.0 sec)
# of grid points (after weights+screening)   ...  23906 (   0.0 sec)
nearest neighbour list constructed           ...    0.0 sec
Grid point re-assignment to atoms done       ...    0.0 sec
Grid point division into batches done        ...    0.0 sec
Reduced shell lists constructed in    0.1 sec

Total number of grid points                  ...    23906
Total number of batches                      ...      382
Average number of points per batch           ...       62
Average number of grid points per atom       ...     1195
Average number of shells per batch           ...    57.22 (61.52%)
Average number of basis functions per batch  ...   117.83 (59.21%)
Average number of large shells per batch     ...    41.91 (73.25%)
Average number of large basis fcns per batch ...    86.71 (73.59%)
Maximum spatial batch extension              ...   7.20, 14.25, 22.77 au
Average spatial batch extension              ...   0.36,  0.42,  0.72 au

Time for grid setup =    0.136 sec

------------------------------
INITIAL GUESS: MODEL POTENTIAL
------------------------------
Loading Hartree-Fock densities                     ... done
Calculating cut-offs                               ... done
Setting up the integral package                    ... done
Initializing the effective Hamiltonian             ... done
Starting the Coulomb interaction                   ... done (   0.1 sec)
Reading the grid                                   ... done
Mapping shells                                     ... done
Starting the XC term evaluation                    ... done (   0.1 sec)
  promolecular density results
     # of electrons  =     83.997163000
     EX              =    -72.467971764
     EC              =     -2.896902880
     EX+EC           =    -75.364874644
Transforming the Hamiltonian                       ... done (   0.0 sec)
Diagonalizing the Hamiltonian                      ... done (   0.0 sec)
Back transforming the eigenvectors                 ... done (   0.0 sec)
Now organizing SCF variables                       ... done
                      ------------------
                      INITIAL GUESS DONE (   0.5 sec)
                      ------------------
--------------------
COSX GRID GENERATION
--------------------

General Integration Accuracy     IntAcc      ...  3.340
Radial Grid Type                 RadialGrid  ... Gauss-Chebyshev
Angular Grid (max. acc.)         AngularGrid ... Lebedev-50
Angular grid pruning method      GridPruning ... 3 (G Style)
Weight generation scheme         WeightScheme... Becke
Basis function cutoff            BFCut       ...    1.0000e-11
Integration weight cutoff        WCut        ...    1.0000e-14
Grids for H and He will be reduced by one unit

# of grid points (after initial pruning)     ...   9190 (   0.0 sec)
# of grid points (after weights+screening)   ...   8615 (   0.0 sec)
nearest neighbour list constructed           ...    0.0 sec
Grid point re-assignment to atoms done       ...    0.0 sec
Grid point division into batches done        ...    0.0 sec
Reduced shell lists constructed in    0.0 sec

Total number of grid points                  ...     8615
Total number of batches                      ...      144
Average number of points per batch           ...       59
Average number of grid points per atom       ...      431
Average number of shells per batch           ...    58.92 (63.35%)
Average number of basis functions per batch  ...   121.48 (61.05%)
Average number of large shells per batch     ...    42.68 (72.44%)
Average number of large basis fcns per batch ...    88.60 (72.93%)
Maximum spatial batch extension              ...   7.87, 11.67, 18.18 au
Average spatial batch extension              ...   0.50,  0.59,  1.10 au

Overlap Fitting                  UseSFitting ... on
Constructing numerical overlap ... done (      0.0 sec)
Inverting numerical overlap    ... done (      0.0 sec)
Obtaining analytic overlap     ... done (      0.0 sec)
Final contraction and storage  ... done (      0.0 sec)


General Integration Accuracy     IntAcc      ...  3.670
Radial Grid Type                 RadialGrid  ... Gauss-Chebyshev
Angular Grid (max. acc.)         AngularGrid ... Lebedev-50
Angular grid pruning method      GridPruning ... 3 (G Style)
Weight generation scheme         WeightScheme... Becke
Basis function cutoff            BFCut       ...    1.0000e-11
Integration weight cutoff        WCut        ...    1.0000e-14
Grids for H and He will be reduced by one unit

# of grid points (after initial pruning)     ...  11738 (   0.0 sec)
# of grid points (after weights+screening)   ...  10983 (   0.0 sec)
nearest neighbour list constructed           ...    0.0 sec
Grid point re-assignment to atoms done       ...    0.0 sec
Grid point division into batches done        ...    0.0 sec
Reduced shell lists constructed in    0.0 sec

Total number of grid points                  ...    10983
Total number of batches                      ...      181
Average number of points per batch           ...       60
Average number of grid points per atom       ...      549
Average number of shells per batch           ...    58.19 (62.57%)
Average number of basis functions per batch  ...   119.88 (60.24%)
Average number of large shells per batch     ...    42.72 (73.42%)
Average number of large basis fcns per batch ...    88.28 (73.64%)
Maximum spatial batch extension              ...   7.47, 11.17, 29.59 au
Average spatial batch extension              ...   0.43,  0.54,  1.11 au

Overlap Fitting                  UseSFitting ... on
Constructing numerical overlap ... done (      0.0 sec)
Inverting numerical overlap    ... done (      0.0 sec)
Obtaining analytic overlap     ... done (      0.0 sec)
Final contraction and storage  ... done (      0.0 sec)


General Integration Accuracy     IntAcc      ...  4.010
Radial Grid Type                 RadialGrid  ... Gauss-Chebyshev
Angular Grid (max. acc.)         AngularGrid ... Lebedev-110
Angular grid pruning method      GridPruning ... 3 (G Style)
Weight generation scheme         WeightScheme... Becke
Basis function cutoff            BFCut       ...    1.0000e-11
Integration weight cutoff        WCut        ...    1.0000e-14
Grids for H and He will be reduced by one unit

# of grid points (after initial pruning)     ...  22068 (   0.0 sec)
# of grid points (after weights+screening)   ...  20556 (   0.0 sec)
nearest neighbour list constructed           ...    0.0 sec
Grid point re-assignment to atoms done       ...    0.0 sec
Grid point division into batches done        ...    0.0 sec
Reduced shell lists constructed in    0.1 sec

Total number of grid points                  ...    20556
Total number of batches                      ...      332
Average number of points per batch           ...       61
Average number of grid points per atom       ...     1028
Average number of shells per batch           ...    57.54 (61.88%)
Average number of basis functions per batch  ...   118.60 (59.60%)
Average number of large shells per batch     ...    42.05 (73.08%)
Average number of large basis fcns per batch ...    86.79 (73.18%)
Maximum spatial batch extension              ...   7.14, 13.92, 22.96 au
Average spatial batch extension              ...   0.40,  0.45,  0.82 au

Overlap Fitting                  UseSFitting ... on
Constructing numerical overlap ... done (      0.0 sec)
Inverting numerical overlap    ... done (      0.0 sec)
Obtaining analytic overlap     ... done (      0.0 sec)
Final contraction and storage  ... done (      0.0 sec)

Time for X-Grid setup             =    0.377 sec
--------------
SCF ITERATIONS
--------------
ITER       Energy         Delta-E        Max-DP      RMS-DP      [F,P]     Damp
               ***  Starting incremental Fock matrix formation  ***
  0   -581.2961690322   0.000000000000 0.10678616  0.00275090  0.2885134 0.7000
  1   -581.5406727820  -0.244503749839 0.06129421  0.00170956  0.1145856 0.7000
                               ***Turning on DIIS***
  2   -581.6209665495  -0.080293767554 0.07961301  0.00225076  0.0470291 0.0000
  3   -581.7614509050  -0.140484355417 0.03875296  0.00118542  0.0638332 0.0000
  4   -581.7883781064  -0.026927201472 0.01377906  0.00034462  0.0197254 0.0000
  5   -581.7909422034  -0.002564096928 0.00350699  0.00010733  0.0042722 0.0000
                      *** Initiating the SOSCF procedure ***
                           *** Shutting down DIIS ***
                      *** Re-Reading the Fockian *** 
                      *** Removing any level shift *** 
ITER      Energy       Delta-E        Grad      Rot      Max-DP    RMS-DP
  6   -581.79103598  -0.0000937770  0.000408  0.000408  0.001388  0.000038
               *** Restarting incremental Fock matrix formation ***
  7   -581.79106977  -0.0000337868  0.000238  0.000795  0.000928  0.000026
  8   -581.79106954   0.0000002292  0.000397  0.000599  0.000667  0.000012
  9   -581.79107160  -0.0000020620  0.000104  0.000198  0.000254  0.000008
 10   -581.79107155   0.0000000518  0.000080  0.000085  0.000166  0.000003
 11   -581.79107179  -0.0000002389  0.000011  0.000059  0.000048  0.000001
 12   -581.79107179  -0.0000000011  0.000021  0.000041  0.000043  0.000001
 13   -581.79107180  -0.0000000068  0.000005  0.000010  0.000012  0.000000
 14   -581.79107179   0.0000000064  0.000004  0.000005  0.000009  0.000000
                  ***Gradient check signals convergence***
              ***Rediagonalizing the Fockian in SOSCF/NRSCF***

               *****************************************************
               *                     SUCCESS                       *
               *           SCF CONVERGED AFTER  15 CYCLES          *
               *****************************************************

Setting up the final grid:

General Integration Accuracy     IntAcc      ...  4.670
Radial Grid Type                 RadialGrid  ... Gauss-Chebyshev
Angular Grid (max. acc.)         AngularGrid ... Lebedev-302
Angular grid pruning method      GridPruning ... 3 (G Style)
Weight generation scheme         WeightScheme... Becke
Basis function cutoff            BFCut       ...    1.0000e-11
Integration weight cutoff        WCut        ...    1.0000e-14
Grids for H and He will be reduced by one unit

# of grid points (after initial pruning)     ...  98878 (   0.0 sec)
# of grid points (after weights+screening)   ...  90746 (   0.1 sec)
nearest neighbour list constructed           ...    0.0 sec
Grid point re-assignment to atoms done       ...    0.0 sec
Grid point division into batches done        ...    0.4 sec
Reduced shell lists constructed in    0.6 sec

Total number of grid points                  ...    90746
Total number of batches                      ...     1430
Average number of points per batch           ...       63
Average number of grid points per atom       ...     4537
Average number of shells per batch           ...    53.17 (57.17%)
Average number of basis functions per batch  ...   108.75 (54.65%)
Average number of large shells per batch     ...    38.81 (73.00%)
Average number of large basis fcns per batch ...    79.66 (73.25%)
Maximum spatial batch extension              ...   8.96, 14.33, 23.20 au
Average spatial batch extension              ...   0.25,  0.28,  0.36 au

Final grid set up in    0.8 sec
Final integration                            ... done (   0.3 sec)
Change in XC energy                          ...    -0.000175257
Integrated number of electrons               ...    83.999962705
Previous integrated no of electrons          ...    84.001123283
Old exchange energy                            =    -14.683949776 Eh
New exchange energy                            =    -14.683522855 Eh
Exchange energy change after final integration =      0.000426921 Eh
Total energy after final integration           =   -581.790820130 Eh
Final COS-X integration done in                =     2.865 sec

----------------
TOTAL SCF ENERGY
----------------

Total Energy       :         -581.79082013 Eh          -15831.33307 eV

Components:
Nuclear Repulsion  :          586.37568675 Eh           15956.09363 eV
Electronic Energy  :        -1168.16650688 Eh          -31787.42669 eV
One Electron Energy:        -1956.00222255 Eh          -53225.52641 eV
Two Electron Energy:          787.83571566 Eh           21438.09972 eV

Virial components:
Potential Energy   :        -1160.12744405 Eh          -31568.67267 eV
Kinetic Energy     :          578.33662392 Eh           15737.33961 eV
Virial Ratio       :            2.00597264


DFT components:
N(Alpha)           :       41.999981352371 electrons
N(Beta)            :       41.999981352371 electrons
N(Total)           :       83.999962704743 electrons
E(X)               :      -58.439449236782 Eh       
E(C)               :       -3.418161140534 Eh       
E(XC)              :      -61.857610377315 Eh       

---------------
SCF CONVERGENCE
---------------

  Last Energy change         ...   -5.9071e-09  Tolerance :   1.0000e-08
  Last MAX-Density change    ...    3.9409e-14  Tolerance :   1.0000e-07
  Last RMS-Density change    ...    3.7545e-16  Tolerance :   5.0000e-09
  Last Orbital Gradient      ...    7.7635e-07  Tolerance :   1.0000e-05
  Last Orbital Rotation      ...    2.3825e-06  Tolerance :   1.0000e-05

             **** THE GBW FILE WAS UPDATED (AT-v/e/frag_23_c00001.gbw) ****
             **** DENSITY FILE WAS UPDATED (AT-v/e/frag_23_c00001.scfp.tmp) ****
             **** ENERGY FILE WAS UPDATED (AT-v/e/frag_23_c00001.en.tmp) ****
----------------
ORBITAL ENERGIES
----------------

  NO   OCC          E(Eh)            E(eV) 
   0   2.0000     -19.133992      -520.6624 
   1   2.0000     -19.099690      -519.7290 
   2   2.0000     -14.353618      -390.5818 
   3   2.0000     -14.347283      -390.4094 
   4   2.0000     -14.343365      -390.3028 
   5   2.0000     -14.336072      -390.1043 
   6   2.0000     -14.303258      -389.2114 
   7   2.0000     -10.314646      -280.6758 
   8   2.0000     -10.306490      -280.4539 
   9   2.0000     -10.270763      -279.4817 
  10   2.0000     -10.252854      -278.9943 
  11   2.0000      -1.056552       -28.7502 
  12   2.0000      -1.037394       -28.2289 
  13   2.0000      -0.952428       -25.9169 
  14   2.0000      -0.933323       -25.3970 
  15   2.0000      -0.899108       -24.4660 
  16   2.0000      -0.889572       -24.2065 
  17   2.0000      -0.849462       -23.1150 
  18   2.0000      -0.670410       -18.2428 
  19   2.0000      -0.660766       -17.9804 
  20   2.0000      -0.619420       -16.8553 
  21   2.0000      -0.584502       -15.9051 
  22   2.0000      -0.566747       -15.4220 
  23   2.0000      -0.535830       -14.5807 
  24   2.0000      -0.506512       -13.7829 
  25   2.0000      -0.495740       -13.4898 
  26   2.0000      -0.479261       -13.0413 
  27   2.0000      -0.456224       -12.4145 
  28   2.0000      -0.447646       -12.1811 
  29   2.0000      -0.440117       -11.9762 
  30   2.0000      -0.429509       -11.6875 
  31   2.0000      -0.413095       -11.2409 
  32   2.0000      -0.398696       -10.8491 
  33   2.0000      -0.388812       -10.5801 
  34   2.0000      -0.317021        -8.6266 
  35   2.0000      -0.296372        -8.0647 
  36   2.0000      -0.289045        -7.8653 
  37   2.0000      -0.277170        -7.5422 
  38   2.0000      -0.270702        -7.3662 
  39   2.0000      -0.266699        -7.2572 
  40   2.0000      -0.256455        -6.9785 
  41   2.0000      -0.236636        -6.4392 
  42   0.0000      -0.059132        -1.6091 
  43   0.0000      -0.019717        -0.5365 
  44   0.0000       0.043063         1.1718 
  45   0.0000       0.045779         1.2457 
  46   0.0000       0.081481         2.2172 
  47   0.0000       0.086331         2.3492 
  48   0.0000       0.089167         2.4264 
  49   0.0000       0.095144         2.5890 
  50   0.0000       0.097386         2.6500 
  51   0.0000       0.150174         4.0864 
  52   0.0000       0.156840         4.2678 
  53   0.0000       0.185436         5.0460 
  54   0.0000       0.227992         6.2040 
  55   0.0000       0.237955         6.4751 
  56   0.0000       0.254590         6.9278 
  57   0.0000       0.289555         7.8792 
  58   0.0000       0.302887         8.2420 
  59   0.0000       0.318099         8.6559 
  60   0.0000       0.323272         8.7967 
  61   0.0000       0.352913         9.6033 
  62   0.0000       0.390138        10.6162 
  63   0.0000       0.404568        11.0088 
  64   0.0000       0.434907        11.8344 
  65   0.0000       0.450074        12.2471 
  66   0.0000       0.466048        12.6818 
  67   0.0000       0.472835        12.8665 
  68   0.0000       0.496179        13.5017 
  69   0.0000       0.499623        13.5954 
  70   0.0000       0.510373        13.8879 
  71   0.0000       0.520373        14.1601 
  72   0.0000       0.525822        14.3083 
  73   0.0000       0.531104        14.4521 
  74   0.0000       0.560363        15.2482 
  75   0.0000       0.564809        15.3692 
  76   0.0000       0.566901        15.4262 
  77   0.0000       0.601742        16.3742 
  78   0.0000       0.615104        16.7378 
  79   0.0000       0.633030        17.2256 
  80   0.0000       0.649581        17.6760 
  81   0.0000       0.677242        18.4287 
  82   0.0000       0.682182        18.5631 
  83   0.0000       0.688786        18.7428 
  84   0.0000       0.717329        19.5195 
  85   0.0000       0.725943        19.7539 
  86   0.0000       0.737343        20.0641 
  87   0.0000       0.749700        20.4004 
  88   0.0000       0.782917        21.3043 
  89   0.0000       0.795301        21.6412 
  90   0.0000       0.799972        21.7684 
  91   0.0000       0.809308        22.0224 
  92   0.0000       0.843290        22.9471 
  93   0.0000       0.858153        23.3515 
  94   0.0000       0.866823        23.5874 
  95   0.0000       0.885514        24.0961 
  96   0.0000       0.901669        24.5357 
  97   0.0000       0.932569        25.3765 
  98   0.0000       0.940128        25.5822 
  99   0.0000       0.946015        25.7424 
 100   0.0000       0.963443        26.2166 
 101   0.0000       0.992625        27.0107 
 102   0.0000       0.997825        27.1522 
 103   0.0000       1.017670        27.6922 
 104   0.0000       1.035240        28.1703 
 105   0.0000       1.054016        28.6812 
 106   0.0000       1.063076        28.9278 
 107   0.0000       1.081905        29.4401 
 108   0.0000       1.101430        29.9714 
 109   0.0000       1.116281        30.3755 
 110   0.0000       1.131464        30.7887 
 111   0.0000       1.148740        31.2588 
 112   0.0000       1.170317        31.8459 
 113   0.0000       1.177805        32.0497 
 114   0.0000       1.225932        33.3593 
 115   0.0000       1.245488        33.8914 
 116   0.0000       1.256613        34.1942 
 117   0.0000       1.266199        34.4550 
 118   0.0000       1.295268        35.2460 
 119   0.0000       1.300697        35.3938 
 120   0.0000       1.307752        35.5857 
 121   0.0000       1.318344        35.8740 
 122   0.0000       1.374811        37.4105 
 123   0.0000       1.427197        38.8360 
 124   0.0000       1.458422        39.6857 
 125   0.0000       1.471701        40.0470 
 126   0.0000       1.495445        40.6931 
 127   0.0000       1.499075        40.7919 
 128   0.0000       1.528616        41.5957 
 129   0.0000       1.540244        41.9122 
 130   0.0000       1.546216        42.0747 
 131   0.0000       1.567776        42.6614 
 132   0.0000       1.593865        43.3713 
 133   0.0000       1.617937        44.0263 
 134   0.0000       1.633320        44.4449 
 135   0.0000       1.662893        45.2496 
 136   0.0000       1.675830        45.6017 
 137   0.0000       1.687702        45.9247 
 138   0.0000       1.700630        46.2765 
 139   0.0000       1.711110        46.5617 
 140   0.0000       1.735401        47.2227 
 141   0.0000       1.739004        47.3207 
 142   0.0000       1.755531        47.7704 
 143   0.0000       1.775641        48.3176 
 144   0.0000       1.782374        48.5009 
 145   0.0000       1.800774        49.0015 
 146   0.0000       1.820788        49.5462 
 147   0.0000       1.895189        51.5707 
 148   0.0000       1.904585        51.8264 
 149   0.0000       1.918430        52.2031 
 150   0.0000       1.936266        52.6885 
 151   0.0000       1.984099        53.9901 
 152   0.0000       2.062106        56.1128 
 153   0.0000       2.069007        56.3006 
 154   0.0000       2.087728        56.8100 
 155   0.0000       2.095636        57.0252 
 156   0.0000       2.103946        57.2513 
 157   0.0000       2.120876        57.7120 
 158   0.0000       2.174052        59.1590 
 159   0.0000       2.195892        59.7533 
 160   0.0000       2.200692        59.8839 
 161   0.0000       2.206712        60.0477 
 162   0.0000       2.235627        60.8345 
 163   0.0000       2.254245        61.3411 
 164   0.0000       2.280251        62.0488 
 165   0.0000       2.288087        62.2620 
 166   0.0000       2.342159        63.7334 
 167   0.0000       2.359100        64.1944 
 168   0.0000       2.365576        64.3706 
 169   0.0000       2.386636        64.9437 
 170   0.0000       2.399725        65.2998 
 171   0.0000       2.450273        66.6753 
 172   0.0000       2.481427        67.5231 
 173   0.0000       2.504111        68.1403 
 174   0.0000       2.546729        69.3000 
 175   0.0000       2.596341        70.6500 
 176   0.0000       2.604427        70.8701 
 177   0.0000       2.632841        71.6433 
 178   0.0000       2.650283        72.1179 
 179   0.0000       2.677326        72.8537 
 180   0.0000       2.693978        73.3069 
 181   0.0000       2.726210        74.1839 
 182   0.0000       2.737195        74.4829 
 183   0.0000       2.770636        75.3928 
 184   0.0000       2.777516        75.5800 
 185   0.0000       2.838799        77.2477 
 186   0.0000       2.869151        78.0736 
 187   0.0000       2.919051        79.4314 
 188   0.0000       2.972441        80.8842 
 189   0.0000       3.017538        82.1114 
 190   0.0000       3.040097        82.7252 
 191   0.0000       3.127593        85.1061 
 192   0.0000       3.178885        86.5019 
 193   0.0000       3.356204        91.3270 
 194   0.0000       3.385418        92.1219 
 195   0.0000       3.404840        92.6504 
 196   0.0000       3.467475        94.3548 
 197   0.0000       3.498459        95.1979 
 198   0.0000       3.547429        96.5305 
-------
TIMINGS
-------

Total SCF time: 0 days 0 hours 0 min 29 sec 

Total time                  ....      29.254 sec
Sum of individual times     ....      29.146 sec  ( 99.6%)

Fock matrix formation       ....      27.281 sec  ( 93.3%)
  Split-RI-J                ....       4.497 sec  ( 16.5% of F)
  Chain of spheres X        ....      20.865 sec  ( 76.5% of F)
  COS-X 1 center corr.      ....       0.000 sec  (  0.0% of F)
  XC integration            ....       1.841 sec  (  6.7% of F)
    Basis function eval.    ....       0.622 sec  ( 33.8% of XC)
    Density eval.           ....       0.278 sec  ( 15.1% of XC)
    XC-Functional eval.     ....       0.072 sec  (  3.9% of XC)
    XC-Potential eval.      ....       0.535 sec  ( 29.1% of XC)
Diagonalization             ....       0.085 sec  (  0.3%)
Density matrix formation    ....       0.024 sec  (  0.1%)
Population analysis         ....       0.000 sec  (  0.0%)
Initial guess               ....       0.315 sec  (  1.1%)
Orbital Transformation      ....       0.000 sec  (  0.0%)
Orbital Orthonormalization  ....       0.000 sec  (  0.0%)
DIIS solution               ....       0.028 sec  (  0.1%)
SOSCF solution              ....       0.145 sec  (  0.5%)
Grid generation             ....       1.270 sec  (  4.3%)


-------------------------------------------------------------------------------
                          DFT DISPERSION CORRECTION                            
                                                                               
                              DFTD3 V3.1  Rev 1                                
                          USING Becke-Johnson damping                          
-------------------------------------------------------------------------------
The B3LYP functional is recognized
Active option DFTDOPT                   ...         4   

molecular C6(AA) [au] = 4050.342140 


            DFT-D V3
 parameters
 s6 scaling factor         :     1.0000 
 a1 scaling factor         :     0.3981 
 s8 scaling factor         :     1.9889 
 a2 scaling factor         :     4.4211 
 ad hoc parameters k1-k3   :    16.0000     1.3333    -4.0000 

 Edisp/kcal,au: -18.489186428670  -0.029464390931 
 E6   /kcal   :  -9.090029964 
 E8   /kcal   :  -9.399156464 
 % E8         :  50.835965664 

-------------------------   ----------------
Dispersion correction           -0.029464391
-------------------------   ----------------


-------------------------   --------------------
FINAL SINGLE POINT ENERGY      -581.820284521040
-------------------------   --------------------



           ************************************************************
           *        Program running with 6 parallel MPI-processes     *
           *              working on a common directory               *
           ************************************************************
------------------------------------------------------------------------------
                         ORCA SCF GRADIENT CALCULATION
------------------------------------------------------------------------------

Gradient of the Kohn-Sham DFT energy:
Kohn-Sham wavefunction type      ... RKS
Hartree-Fock exchange scaling    ...    0.200
Number of operators              ...    1
Number of atoms                  ...   20
Basis set dimensions             ...  199
Integral neglect threshold       ... 2.5e-11
Integral primitive cutoff        ... 2.5e-12

Nuclear repulsion gradient       ... done
One Electron Gradient            ... done
Pre-screening matrix             ... done
RI-J gradient                    ... done
COSX-gradient                    ... done
Exchange-correlation gradient    ... done
Dispersion correction            ... done

------------------
CARTESIAN GRADIENT
------------------

   1   N   :    0.044306478   -0.024686989    0.000203117
   2   C   :   -0.039934605    0.036997270    0.000381491
   3   C   :    0.008168126   -0.015628808   -0.002693498
   4   N   :   -0.015398714    0.010356644   -0.000730007
   5   N   :   -0.010647812    0.012464224    0.000047774
   6   N   :    0.015770052   -0.000252012    0.003223617
   7   C   :    0.014847430   -0.018775074   -0.007054311
   8   O   :   -0.002203339    0.010569378    0.003671288
   9   N   :    0.011934947    0.021834531    0.000110662
  10   C   :   -0.021561755    0.004100482    0.000247040
  11   O   :    0.008430249   -0.009167953   -0.001407789
  12   H   :   -0.000913587    0.003510653   -0.000502014
  13   H   :    0.004276640   -0.014607868    0.000295872
  14   H   :    0.000260439   -0.007673969    0.002055549
  15   H   :    0.004241861   -0.002354927    0.001786911
  16   H   :    0.002754382    0.002355638    0.000511760
  17   H   :   -0.006820008    0.000827883    0.000430069
  18   H   :   -0.001795602   -0.008102087   -0.000853633
  19   H   :   -0.021834648   -0.001789936   -0.000411169
  20   H   :    0.006277572   -0.000032371    0.001129167

Difference to translation invariance:
           :    0.0001581078   -0.0000552911    0.0004418975

Norm of the cartesian gradient     ...    0.0986125013
RMS gradient                       ...    0.0127308192
MAX gradient                       ...    0.0443064777

-------
TIMINGS
-------

Total SCF gradient time            ...        5.895 sec

One electron gradient       ....       0.107 sec  (  1.8%)
Prescreening matrices       ....       0.118 sec  (  2.0%)
RI-J Coulomb gradient       ....       0.974 sec  ( 16.5%)
COSX gradient               ....       2.757 sec  ( 46.8%)
XC gradient                 ....       1.355 sec  ( 23.0%)
------------------------------------------------------------------------------
                         ORCA GEOMETRY RELAXATION STEP
------------------------------------------------------------------------------

Reading the OPT-File                    .... done
Getting information on internals        .... done
Copying old internal coords+grads       .... done
Making the new internal coordinates     .... (new redundants).... done
Validating the new internal coordinates .... (new redundants).... done
Calculating the B-matrix                .... done
Calculating the G,G- and P matrices     .... done
Transforming gradient to internals      .... done
Projecting the internal gradient        .... done
Number of atoms                         ....  20
Number of internal coordinates          ....  84
Current Energy                          ....  -581.820284521 Eh
Current gradient norm                   ....     0.098612501 Eh/bohr
Maximum allowed component of the step   ....  0.300
Current trust radius                    ....  0.300
Evaluating the initial hessian          ....  (Almloef) done
Projecting the Hessian                  .... done
Forming the augmented Hessian           .... done
Diagonalizing the augmented Hessian     .... done
Last element of RFO vector              ....  0.979021467
Lowest eigenvalues of augmented Hessian:
 -0.013751827  0.009900411  0.012437062  0.019315248  0.021996402
Length of the computed step             ....  0.208123247
The final length of the internal step   ....  0.208123247
Converting the step to cartesian space:
 Initial RMS(Int)=    0.0227081080
Transforming coordinates:
 Iter   0:  RMS(Cart)=    0.0739130794 RMS(Int)=    1.1849166494
 Iter   1:  RMS(Cart)=    0.0026137215 RMS(Int)=    0.0017957738
 Iter   2:  RMS(Cart)=    0.0001904512 RMS(Int)=    0.0000831524
 Iter   3:  RMS(Cart)=    0.0000290000 RMS(Int)=    0.0000192647
 Iter   4:  RMS(Cart)=    0.0000109413 RMS(Int)=    0.0000049713
 Iter   5:  RMS(Cart)=    0.0000051120 RMS(Int)=    0.0000023389
 Iter   6:  RMS(Cart)=    0.0000024362 RMS(Int)=    0.0000011127
 Iter   7:  RMS(Cart)=    0.0000011627 RMS(Int)=    0.0000005308
 Iter   8:  RMS(Cart)=    0.0000005547 RMS(Int)=    0.0000002532
 Iter   9:  RMS(Cart)=    0.0000002646 RMS(Int)=    0.0000001208
 Iter  10:  RMS(Cart)=    0.0000001263 RMS(Int)=    0.0000000576
 Iter  11:  RMS(Cart)=    0.0000000602 RMS(Int)=    0.0000000275
done
Storing new coordinates                 .... done

                                .--------------------.
          ----------------------|Geometry convergence|-------------------------
          Item                value                   Tolerance       Converged
          ---------------------------------------------------------------------
          RMS gradient        0.0089961070            0.0020000000      NO
          MAX gradient        0.0451810069            0.0030000000      NO
          RMS step            0.0227081080            0.0200000000      NO
          MAX step            0.0651239159            0.0300000000      NO
          ........................................................
          Max(Bonds)      0.0318      Max(Angles)    3.73
          Max(Dihed)        3.05      Max(Improp)    0.00
          ---------------------------------------------------------------------

The optimization has not yet converged - more geometry cycles are needed


    ---------------------------------------------------------------------------
                         Redundant Internal Coordinates
                            (Angstroem and degrees)

        Definition                    Value    dE/dq     Step     New-Value
    ----------------------------------------------------------------------------
     1. B(C   1,N   0)                1.3147  0.045181 -0.0318    1.2829   
     2. B(C   2,C   1)                1.4940  0.007780 -0.0094    1.4846   
     3. B(N   3,C   2)                1.3475  0.004427 -0.0035    1.3440   
     4. B(N   4,C   2)                1.3147  0.015635 -0.0109    1.3037   
     5. B(C   6,N   5)                1.3723 -0.006887  0.0060    1.3783   
     6. B(O   7,C   6)                1.2232  0.008108 -0.0041    1.2191   
     7. B(N   8,C   6)                1.3767 -0.022908  0.0202    1.3968   
     8. B(C   9,N   8)                1.3712  0.007687 -0.0066    1.3645   
     9. B(O  10,C   9)                1.2330  0.011060 -0.0059    1.2272   
    10. B(H  11,N   0)                1.0296  0.000790 -0.0010    1.0286   
    11. B(H  12,C   1)                1.0858 -0.012437  0.0173    1.1032   
    12. B(H  13,N   3)                1.0191  0.006681 -0.0082    1.0110   
    13. B(H  14,N   3)                1.0198 -0.005200  0.0063    1.0261   
    14. B(H  14,O  10)                1.8744 -0.001236  0.0186    1.8930   
    15. B(H  15,N   4)                1.0258  0.003518 -0.0044    1.0214   
    16. B(H  16,N   5)                1.0139  0.003326 -0.0040    1.0099   
    17. B(H  17,N   5)                1.0060 -0.006306  0.0074    1.0134   
    18. B(H  18,N   4)                1.7506 -0.001691  0.0225    1.7730   
    19. B(H  18,N   8)                1.0269 -0.023551  0.0298    1.0567   
    20. B(H  19,C   9)                1.0989 -0.006296  0.0092    1.1081   
    21. A(C   1,N   0,H  11)          106.33 -0.006921    1.05    107.38   
    22. A(N   0,C   1,C   2)          128.30  0.026737   -3.73    124.57   
    23. A(N   0,C   1,H  12)          117.70 -0.022366    3.22    120.92   
    24. A(C   2,C   1,H  12)          114.00 -0.004373    0.52    114.52   
    25. A(N   3,C   2,N   4)          121.38 -0.004269    0.62    122.00   
    26. A(C   1,C   2,N   4)          117.60 -0.014172    1.89    119.49   
    27. A(C   1,C   2,N   3)          121.02  0.018438   -2.51    118.51   
    28. A(C   2,N   3,H  14)          120.59  0.002193   -0.33    120.25   
    29. A(C   2,N   3,H  13)          119.68  0.002863   -0.50    119.18   
    30. A(H  13,N   3,H  14)          118.63 -0.005022    0.85    119.48   
    31. A(H  15,N   4,H  18)          125.89 -0.000094   -0.01    125.88   
    32. A(C   2,N   4,H  18)          123.42  0.001730   -0.23    123.20   
    33. A(C   2,N   4,H  15)          110.68 -0.001632    0.23    110.91   
    34. A(H  16,N   5,H  17)          113.07 -0.007190    0.98    114.05   
    35. A(C   6,N   5,H  17)          116.29  0.003749   -0.83    115.45   
    36. A(C   6,N   5,H  16)          125.85  0.004967   -1.02    124.83   
    37. A(O   7,C   6,N   8)          123.72  0.017480   -2.16    121.56   
    38. A(N   5,C   6,N   8)          114.62 -0.018510    2.36    116.97   
    39. A(N   5,C   6,O   7)          121.66  0.001031   -0.19    121.47   
    40. A(C   9,N   8,H  18)          116.95  0.002858   -0.35    116.60   
    41. A(C   6,N   8,H  18)          115.91  0.002766   -0.41    115.50   
    42. A(C   6,N   8,C   9)          127.14 -0.005621    0.76    127.90   
    43. A(O  10,C   9,H  19)          120.15  0.001656   -0.21    119.94   
    44. A(N   8,C   9,H  19)          116.46  0.001771   -0.25    116.22   
    45. A(N   8,C   9,O  10)          123.39 -0.003425    0.45    123.84   
    46. A(C   9,O  10,H  14)          123.92 -0.000988    0.23    124.15   
    47. A(N   3,H  14,O  10)          168.72 -0.000834    0.28    168.99   
    48. L(N   4,H  18,N   8,C   9, 2) 180.60  0.000302   -0.09    180.50   
    49. L(N   4,H  18,N   8,C   9, 1) 178.55  0.002502   -0.50    178.05   
    50. D(H  12,C   1,N   0,H  11)     -0.19 -0.000188    0.06     -0.14   
    51. D(C   2,C   1,N   0,H  11)    179.56 -0.000626    0.79    180.35   
    52. D(N   4,C   2,C   1,N   0)    179.66  0.000089   -0.35    179.31   
    53. D(N   3,C   2,C   1,N   0)     -0.00  0.000690   -1.06     -1.07   
    54. D(N   4,C   2,C   1,H  12)     -0.58 -0.000376    0.38     -0.20   
    55. D(N   3,C   2,C   1,H  12)    179.76  0.000225   -0.34    179.42   
    56. D(H  13,N   3,C   2,C   1)      7.51  0.000425   -0.45      7.06   
    57. D(H  14,N   3,C   2,C   1)    175.36  0.000002   -0.29    175.08   
    58. D(H  14,N   3,C   2,N   4)     -4.29  0.000655   -1.03     -5.32   
    59. D(H  13,N   3,C   2,N   4)   -172.13  0.001078   -1.20   -173.34   
    60. D(H  18,N   4,C   2,N   3)     -0.52 -0.000644    0.51     -0.01   
    61. D(H  15,N   4,C   2,N   3)   -179.69 -0.000954    0.98   -178.70   
    62. D(H  15,N   4,C   2,C   1)      0.66 -0.000432    0.27      0.93   
    63. D(H  18,N   4,C   2,C   1)    179.83 -0.000122   -0.20    179.62   
    64. D(O   7,C   6,N   5,H  16)   -157.62  0.000448   -1.04   -158.66   
    65. D(N   8,C   6,N   5,H  17)    176.04  0.000451   -0.17    175.87   
    66. D(N   8,C   6,N   5,H  16)     22.38 -0.001661    1.84     24.22   
    67. D(O   7,C   6,N   5,H  17)     -3.96  0.002560   -3.05     -7.01   
    68. D(H  18,N   8,C   6,O   7)     -0.47 -0.001972    2.76      2.28   
    69. D(H  18,N   8,C   6,N   5)    179.52  0.000186   -0.19    179.33   
    70. D(C   9,N   8,C   6,O   7)   -179.62 -0.002259    3.05   -176.57   
    71. D(C   9,N   8,C   6,N   5)      0.38 -0.000100    0.11      0.48   
    72. D(C   9,N   8,N   4,H  15)    177.66 -0.000073    0.18    177.84   
    73. D(C   9,N   8,N   4,C   2)     -1.17 -0.000428    0.71     -0.46   
    74. D(C   6,N   8,N   4,H  15)     -1.34 -0.000158    0.41     -0.92   
    75. D(C   6,N   8,N   4,C   2)    179.83 -0.000514    0.95    180.78   
    76. D(H  19,C   9,N   8,H  18)   -178.49 -0.000392    0.12   -178.37   
    77. D(H  19,C   9,N   8,C   6)      0.65 -0.000105   -0.18      0.47   
    78. D(O  10,C   9,N   8,H  18)      1.29  0.000129   -0.41      0.88   
    79. D(O  10,C   9,N   8,C   6)   -179.57  0.000416   -0.71   -180.28   
    80. D(H  14,O  10,C   9,N   8)      2.39  0.000612   -0.45      1.94   
    81. D(H  14,O  10,C   9,H  19)   -177.83  0.001151   -1.01   -178.84   
    82. D(N   3,H  14,O  10,C   9)    -44.49 -0.000629    1.44    -43.05   
    83. D(O  10,H  14,N   3,H  13)   -147.66  0.000130    0.01   -147.65   
    84. D(O  10,H  14,N   3,C   2)     44.37 -0.000384    0.00     44.37   
    ----------------------------------------------------------------------------

         *************************************************************
         *                GEOMETRY OPTIMIZATION CYCLE   2            *
         *************************************************************
---------------------------------
CARTESIAN COORDINATES (ANGSTROEM)
---------------------------------
  N      3.945464   -1.577429    0.007872
  C      3.150282   -0.570735   -0.003863
  C      1.668880   -0.667257    0.009156
  N      1.105522   -1.887489    0.013186
  N      0.954584    0.423389    0.008917
  N     -3.896973    1.612687   -0.025670
  C     -2.518874    1.625367   -0.006927
  O     -1.891725    2.669522   -0.058295
  N     -1.874506    0.386152    0.010273
  C     -2.442991   -0.854304    0.001430
  O     -1.801262   -1.900237    0.012993
  H      4.906233   -1.210082    0.000232
  H      3.541686    0.460603   -0.016753
  H      1.695128   -2.702289    0.115712
  H      0.087789   -1.986667    0.098429
  H      1.552812    1.250833   -0.016161
  H     -4.471294    0.853630    0.311931
  H     -4.341405    2.521858    0.027712
  H     -0.818469    0.422608    0.013554
  H     -3.550183   -0.885160   -0.030430

----------------------------
CARTESIAN COORDINATES (A.U.)
----------------------------
  NO LB      ZA    FRAG     MASS         X           Y           Z
   0 N     7.0000    0    14.007    7.455847   -2.980909    0.014876
   1 C     6.0000    0    12.011    5.953170   -1.078534   -0.007301
   2 C     6.0000    0    12.011    3.153727   -1.260933    0.017302
   3 N     7.0000    0    14.007    2.089134   -3.566837    0.024919
   4 N     7.0000    0    14.007    1.803903    0.800089    0.016851
   5 N     7.0000    0    14.007   -7.364212    3.047537   -0.048510
   6 C     6.0000    0    12.011   -4.759981    3.071498   -0.013090
   7 O     8.0000    0    15.999   -3.574842    5.044665   -0.110161
   8 N     7.0000    0    14.007   -3.542304    0.729722    0.019414
   9 C     6.0000    0    12.011   -4.616583   -1.614401    0.002703
  10 O     8.0000    0    15.999   -3.403892   -3.590927    0.024553
  11 H     1.0000    0     1.008    9.271437   -2.286723    0.000439
  12 H     1.0000    0     1.008    6.692817    0.870413   -0.031659
  13 H     1.0000    0     1.008    3.203328   -5.106587    0.218665
  14 H     1.0000    0     1.008    0.165898   -3.754256    0.186003
  15 H     1.0000    0     1.008    2.934390    2.363732   -0.030540
  16 H     1.0000    0     1.008   -8.449522    1.613127    0.589465
  17 H     1.0000    0     1.008   -8.204066    4.765621    0.052369
  18 H     1.0000    0     1.008   -1.546682    0.798614    0.025614
  19 H     1.0000    0     1.008   -6.708873   -1.672709   -0.057504

--------------------------------
INTERNAL COORDINATES (ANGSTROEM)
--------------------------------
 N      0   0   0     0.000000000000     0.00000000     0.00000000
 C      1   0   0     1.282920713616     0.00000000     0.00000000
 C      2   1   0     1.484599561362   124.56841358     0.00000000
 N      3   2   1     1.344006886902   118.51013731   358.93984155
 N      3   2   1     1.303736100516   119.49274302   179.31346338
 N      5   3   2     4.995321072830   136.99432193   178.84639843
 C      6   5   3     1.378285191286    14.30522185   178.81214834
 O      7   6   5     1.219103386195   121.44444275   175.24133857
 N      7   6   8     1.396838724861   116.95222630   182.91298264
 C      9   7   6     1.364545391980   127.89501782     0.50437359
 O     10   9   7     1.227161038487   123.84088649   179.71583389
 H      1   2   3     1.028629912665   107.37548271   180.36147380
 H      2   1   3     1.103187253389   120.91601288   179.49507445
 H      4   3   2     1.010963329128   119.18185271     7.05227271
 H      4   3   2     1.026100452439   120.24825914   175.06060137
 H      5   3   2     1.021356877169   110.90541528     0.91896770
 H      6   5   3     1.009944278570   111.78020550    21.67916698
 H      6   5   3     1.013391201950   129.72995738   176.15179304
 H      9   7   6     1.056671735590   115.49659023   179.34521513
 H     10   9   7     1.108080187964   116.21729913     0.47058746

---------------------------
INTERNAL COORDINATES (A.U.)
---------------------------
 N      0   0   0     0.000000000000     0.00000000     0.00000000
 C      1   0   0     2.424368800269     0.00000000     0.00000000
 C      2   1   0     2.805486589513   124.56841358     0.00000000
 N      3   2   1     2.539804938348   118.51013731   358.93984155
 N      3   2   1     2.463704180882   119.49274302   179.31346338
 N      5   3   2     9.439788778654   136.99432193   178.84639843
 C      6   5   3     2.604581545969    14.30522185   178.81214834
 O      7   6   5     2.303771528845   121.44444275   175.24133857
 N      7   6   8     2.639642643244   116.95222630   182.91298264
 C      9   7   6     2.578617088146   127.89501782     0.50437359
 O     10   9   7     2.318998284960   123.84088649   179.71583389
 H      1   2   3     1.943828828096   107.37548271   180.36147380
 H      2   1   3     2.084721783337   120.91601288   179.49507445
 H      4   3   2     1.910443823490   119.18185271     7.05227271
 H      4   3   2     1.939048841002   120.24825914   175.06060137
 H      5   3   2     1.930084782846   110.90541528     0.91896770
 H      6   5   3     1.908518097018   111.78020550    21.67916698
 H      6   5   3     1.915031838211   129.72995738   176.15179304
 H      9   7   6     1.996820193720   115.49659023   179.34521513
 H     10   9   7     2.093968089677   116.21729913     0.47058746



           ************************************************************
           *        Program running with 6 parallel MPI-processes     *
           *              working on a common directory               *
           ************************************************************
 One Electron integrals                  ... done
 Pre-screening matrix                    ... done


           ************************************************************
           *        Program running with 6 parallel MPI-processes     *
           *              working on a common directory               *
           ************************************************************

Diagonalization of the overlap matrix:
Smallest eigenvalue                        ... 2.193e-03
Time for diagonalization                   ...    0.010 sec
Threshold for overlap eigenvalues          ... 1.000e-08
Number of eigenvalues below threshold      ... 0
Time for construction of square roots      ...    0.004 sec
Total time needed                          ...    0.015 sec

-------------------
DFT GRID GENERATION
-------------------

General Integration Accuracy     IntAcc      ...  4.340
Radial Grid Type                 RadialGrid  ... Gauss-Chebyshev
Angular Grid (max. acc.)         AngularGrid ... Lebedev-110
Angular grid pruning method      GridPruning ... 3 (G Style)
Weight generation scheme         WeightScheme... Becke
Basis function cutoff            BFCut       ...    1.0000e-11
Integration weight cutoff        WCut        ...    1.0000e-14
Grids for H and He will be reduced by one unit

# of grid points (after initial pruning)     ...  25712 (   0.0 sec)
# of grid points (after weights+screening)   ...  23929 (   0.0 sec)
nearest neighbour list constructed           ...    0.0 sec
Grid point re-assignment to atoms done       ...    0.0 sec
Grid point division into batches done        ...    0.0 sec
Reduced shell lists constructed in    0.1 sec

Total number of grid points                  ...    23929
Total number of batches                      ...      383
Average number of points per batch           ...       62
Average number of grid points per atom       ...     1196
Average number of shells per batch           ...    57.25 (61.56%)
Average number of basis functions per batch  ...   117.65 (59.12%)
Average number of large shells per batch     ...    42.43 (74.12%)
Average number of large basis fcns per batch ...    87.82 (74.64%)
Maximum spatial batch extension              ...   7.30, 14.06, 23.23 au
Average spatial batch extension              ...   0.36,  0.42,  0.73 au

Time for grid setup =    0.131 sec

--------------------
COSX GRID GENERATION
--------------------

General Integration Accuracy     IntAcc      ...  3.340
Radial Grid Type                 RadialGrid  ... Gauss-Chebyshev
Angular Grid (max. acc.)         AngularGrid ... Lebedev-50
Angular grid pruning method      GridPruning ... 3 (G Style)
Weight generation scheme         WeightScheme... Becke
Basis function cutoff            BFCut       ...    1.0000e-11
Integration weight cutoff        WCut        ...    1.0000e-14
Grids for H and He will be reduced by one unit

# of grid points (after initial pruning)     ...   9190 (   0.0 sec)
# of grid points (after weights+screening)   ...   8615 (   0.0 sec)
nearest neighbour list constructed           ...    0.0 sec
Grid point re-assignment to atoms done       ...    0.0 sec
Grid point division into batches done        ...    0.0 sec
Reduced shell lists constructed in    0.0 sec

Total number of grid points                  ...     8615
Total number of batches                      ...      143
Average number of points per batch           ...       60
Average number of grid points per atom       ...      431
Average number of shells per batch           ...    58.44 (62.84%)
Average number of basis functions per batch  ...   120.76 (60.68%)
Average number of large shells per batch     ...    43.08 (73.72%)
Average number of large basis fcns per batch ...    89.40 (74.03%)
Maximum spatial batch extension              ...   5.42, 10.04, 25.07 au
Average spatial batch extension              ...   0.45,  0.50,  1.22 au

Overlap Fitting                  UseSFitting ... on
Constructing numerical overlap ... done (      0.0 sec)
Inverting numerical overlap    ... done (      0.0 sec)
Obtaining analytic overlap     ... done (      0.0 sec)
Final contraction and storage  ... done (      0.0 sec)


General Integration Accuracy     IntAcc      ...  3.670
Radial Grid Type                 RadialGrid  ... Gauss-Chebyshev
Angular Grid (max. acc.)         AngularGrid ... Lebedev-50
Angular grid pruning method      GridPruning ... 3 (G Style)
Weight generation scheme         WeightScheme... Becke
Basis function cutoff            BFCut       ...    1.0000e-11
Integration weight cutoff        WCut        ...    1.0000e-14
Grids for H and He will be reduced by one unit

# of grid points (after initial pruning)     ...  11738 (   0.0 sec)
# of grid points (after weights+screening)   ...  10993 (   0.0 sec)
nearest neighbour list constructed           ...    0.0 sec
Grid point re-assignment to atoms done       ...    0.0 sec
Grid point division into batches done        ...    0.0 sec
Reduced shell lists constructed in    0.0 sec

Total number of grid points                  ...    10993
Total number of batches                      ...      181
Average number of points per batch           ...       60
[...]
Total number of batches                      ...      332
Average number of points per batch           ...       62
Average number of grid points per atom       ...     1029
Average number of shells per batch           ...    58.44 (62.84%)
Average number of basis functions per batch  ...   120.40 (60.50%)
Average number of large shells per batch     ...    43.04 (73.64%)
Average number of large basis fcns per batch ...    89.18 (74.06%)
Maximum spatial batch extension              ...   4.45,  8.78, 21.67 au
Average spatial batch extension              ...   0.34,  0.41,  0.74 au

Overlap Fitting                  UseSFitting ... on
Constructing numerical overlap ... done (      0.0 sec)
Inverting numerical overlap    ... done (      0.0 sec)
Obtaining analytic overlap     ... done (      0.0 sec)
Final contraction and storage  ... done (      0.0 sec)

Time for X-Grid setup             =    0.392 sec
--------------
SCF ITERATIONS
--------------
ITER       Energy         Delta-E        Max-DP      RMS-DP      [F,P]     Damp
               ***  Starting incremental Fock matrix formation  ***
                      *** Initiating the SOSCF procedure ***
                      *** Re-Reading the Fockian *** 
                      *** Removing any level shift *** 
ITER      Energy       Delta-E        Grad      Rot      Max-DP    RMS-DP
  0   -581.80338472 -581.8033847208  0.001337  0.001337  0.009152  0.000134
               *** Restarting incremental Fock matrix formation ***
  1   -581.80364697  -0.0002622522  0.000480  0.001974  0.002741  0.000059
  2   -581.80367518  -0.0000282082  0.000432  0.001121  0.001519  0.000038
  3   -581.80366859   0.0000065889  0.000810  0.000686  0.000988  0.000024
  4   -581.80367825  -0.0000096565  0.000039  0.000118  0.000182  0.000003
  5   -581.80367820   0.0000000505  0.000072  0.000080  0.000113  0.000002
  6   -581.80367830  -0.0000001037  0.000006  0.000025  0.000037  0.000001
  7   -581.80367830   0.0000000069  0.000012  0.000017  0.000028  0.000000
                  ***Gradient check signals convergence***
              ***Rediagonalizing the Fockian in SOSCF/NRSCF***

               *****************************************************
               *                     SUCCESS                       *
               *           SCF CONVERGED AFTER   8 CYCLES          *
               *****************************************************

Setting up the final grid:

General Integration Accuracy     IntAcc      ...  4.670
Radial Grid Type                 RadialGrid  ... Gauss-Chebyshev
Angular Grid (max. acc.)         AngularGrid ... Lebedev-302
Angular grid pruning method      GridPruning ... 3 (G Style)
Weight generation scheme         WeightScheme... Becke
Basis function cutoff            BFCut       ...    1.0000e-11
Integration weight cutoff        WCut        ...    1.0000e-14
Grids for H and He will be reduced by one unit

# of grid points (after initial pruning)     ...  98878 (   0.0 sec)
# of grid points (after weights+screening)   ...  90710 (   0.1 sec)
nearest neighbour list constructed           ...    0.0 sec
Grid point re-assignment to atoms done       ...    0.0 sec
Grid point division into batches done        ...    0.4 sec
Reduced shell lists constructed in    0.6 sec

Total number of grid points                  ...    90710
Total number of batches                      ...     1430
Average number of points per batch           ...       63
Average number of grid points per atom       ...     4536
Average number of shells per batch           ...    54.99 (59.13%)
Average number of basis functions per batch  ...   112.60 (56.59%)
Average number of large shells per batch     ...    40.35 (73.37%)
Average number of large basis fcns per batch ...    83.26 (73.94%)
Maximum spatial batch extension              ...   5.76, 11.19, 23.14 au
Average spatial batch extension              ...   0.23,  0.26,  0.33 au

Final grid set up in    0.7 sec
Final integration                            ... done (   0.4 sec)
Change in XC energy                          ...    -0.000120152
Integrated number of electrons               ...    84.000150904
Previous integrated no of electrons          ...    84.003713297
Old exchange energy                            =    -14.687021034 Eh
New exchange energy                            =    -14.686748514 Eh
Exchange energy change after final integration =      0.000272520 Eh
Total energy after final integration           =   -581.803525934 Eh
Final COS-X integration done in                =     2.796 sec

----------------
TOTAL SCF ENERGY
----------------

Total Energy       :         -581.80352593 Eh          -15831.67881 eV

Components:
Nuclear Repulsion  :          588.32284838 Eh           16009.07859 eV
Electronic Energy  :        -1170.12637432 Eh          -31840.75740 eV
One Electron Energy:        -1960.05950616 Eh          -53335.93071 eV
Two Electron Energy:          789.93313184 Eh           21495.17331 eV

Virial components:
Potential Energy   :        -1160.22444468 Eh          -31571.31219 eV
Kinetic Energy     :          578.42091875 Eh           15739.63339 eV
Virial Ratio       :            2.00584800


DFT components:
N(Alpha)           :       42.000075451761 electrons
N(Beta)            :       42.000075451761 electrons
N(Total)           :       84.000150903522 electrons
E(X)               :      -58.447878669575 Eh       
E(C)               :       -3.419508822012 Eh       
E(XC)              :      -61.867387491587 Eh       

---------------
SCF CONVERGENCE
---------------

  Last Energy change         ...   -6.7366e-09  Tolerance :   1.0000e-08
  Last MAX-Density change    ...    2.4038e-13  Tolerance :   1.0000e-07
  Last RMS-Density change    ...    1.6507e-15  Tolerance :   5.0000e-09
  Last Orbital Gradient      ...    7.1722e-07  Tolerance :   1.0000e-05
  Last Orbital Rotation      ...    1.2146e-06  Tolerance :   1.0000e-05

             **** THE GBW FILE WAS UPDATED (AT-v/e/frag_23_c00001.gbw) ****
             **** DENSITY FILE WAS UPDATED (AT-v/e/frag_23_c00001.scfp.tmp) ****
             **** ENERGY FILE WAS UPDATED (AT-v/e/frag_23_c00001.en.tmp) ****
----------------
ORBITAL ENERGIES
----------------

  NO   OCC          E(Eh)            E(eV) 
   0   2.0000     -19.126138      -520.4487 
   1   2.0000     -19.104139      -519.8500 
   2   2.0000     -14.351301      -390.5187 
   3   2.0000     -14.350411      -390.4945 
   4   2.0000     -14.344261      -390.3272 
   5   2.0000     -14.326228      -389.8365 
   6   2.0000     -14.300386      -389.1333 
   7   2.0000     -10.314798      -280.6799 
   8   2.0000     -10.297422      -280.2071 
   9   2.0000     -10.261961      -279.2422 
  10   2.0000     -10.253440      -279.0103 
  11   2.0000      -1.054227       -28.6870 
  12   2.0000      -1.037731       -28.2381 
  13   2.0000      -0.957538       -26.0559 
  14   2.0000      -0.927058       -25.2265 
  15   2.0000      -0.909475       -24.7481 
  16   2.0000      -0.889815       -24.2131 
  17   2.0000      -0.848402       -23.0862 
  18   2.0000      -0.668603       -18.1936 
  19   2.0000      -0.649065       -17.6620 
  20   2.0000      -0.606388       -16.5007 
  21   2.0000      -0.575778       -15.6677 
  22   2.0000      -0.555814       -15.1245 
  23   2.0000      -0.541276       -14.7289 
  24   2.0000      -0.508011       -13.8237 
  25   2.0000      -0.500162       -13.6101 
  26   2.0000      -0.475645       -12.9430 
  27   2.0000      -0.453518       -12.3409 
  28   2.0000      -0.441413       -12.0114 
  29   2.0000      -0.432715       -11.7748 
  30   2.0000      -0.427096       -11.6219 
  31   2.0000      -0.414195       -11.2708 
  32   2.0000      -0.401891       -10.9360 
  33   2.0000      -0.387119       -10.5341 
  34   2.0000      -0.324427        -8.8281 
  35   2.0000      -0.302859        -8.2412 
  36   2.0000      -0.290510        -7.9052 
  37   2.0000      -0.278655        -7.5826 
  38   2.0000      -0.270347        -7.3565 
  39   2.0000      -0.261189        -7.1073 
  40   2.0000      -0.255851        -6.9621 
  41   2.0000      -0.234013        -6.3678 
  42   0.0000      -0.052504        -1.4287 
  43   0.0000      -0.012550        -0.3415 
  44   0.0000       0.050534         1.3751 
  45   0.0000       0.051291         1.3957 
  46   0.0000       0.076577         2.0838 
  47   0.0000       0.085596         2.3292 
  48   0.0000       0.090956         2.4750 
  49   0.0000       0.100555         2.7362 
  50   0.0000       0.107494         2.9251 
  51   0.0000       0.135623         3.6905 
  52   0.0000       0.145157         3.9499 
  53   0.0000       0.187605         5.1050 
  54   0.0000       0.222024         6.0416 
  55   0.0000       0.239525         6.5178 
  56   0.0000       0.252545         6.8721 
  57   0.0000       0.290372         7.9014 
  58   0.0000       0.304955         8.2983 
  59   0.0000       0.315965         8.5978 
  60   0.0000       0.332497         9.0477 
  61   0.0000       0.359103         9.7717 
  62   0.0000       0.378323        10.2947 
  63   0.0000       0.402423        10.9505 
  64   0.0000       0.447386        12.1740 
  65   0.0000       0.456371        12.4185 
  66   0.0000       0.468554        12.7500 
  67   0.0000       0.470387        12.7999 
  68   0.0000       0.495224        13.4757 
  69   0.0000       0.498209        13.5570 
  70   0.0000       0.512047        13.9335 
  71   0.0000       0.517237        14.0747 
  72   0.0000       0.532362        14.4863 
  73   0.0000       0.543952        14.8017 
  74   0.0000       0.559877        15.2350 
  75   0.0000       0.572222        15.5709 
  76   0.0000       0.581395        15.8205 
  77   0.0000       0.602949        16.4071 
  78   0.0000       0.616058        16.7638 
  79   0.0000       0.635250        17.2860 
  80   0.0000       0.647569        17.6213 
  81   0.0000       0.670825        18.2541 
  82   0.0000       0.678348        18.4588 
  83   0.0000       0.682332        18.5672 
  84   0.0000       0.711563        19.3626 
  85   0.0000       0.724301        19.7092 
  86   0.0000       0.740443        20.1485 
  87   0.0000       0.752505        20.4767 
  88   0.0000       0.782751        21.2997 
  89   0.0000       0.798082        21.7169 
  90   0.0000       0.805895        21.9295 
  91   0.0000       0.812479        22.1087 
  92   0.0000       0.839191        22.8355 
  93   0.0000       0.850405        23.1407 
  94   0.0000       0.868148        23.6235 
  95   0.0000       0.878403        23.9026 
  96   0.0000       0.897023        24.4092 
  97   0.0000       0.920291        25.0424 
  98   0.0000       0.939699        25.5705 
  99   0.0000       0.945657        25.7326 
 100   0.0000       0.978611        26.6294 
 101   0.0000       0.981216        26.7002 
 102   0.0000       0.995873        27.0991 
 103   0.0000       1.020179        27.7605 
 104   0.0000       1.026978        27.9455 
 105   0.0000       1.054005        28.6809 
 106   0.0000       1.064572        28.9685 
 107   0.0000       1.091879        29.7115 
 108   0.0000       1.107231        30.1293 
 109   0.0000       1.114345        30.3229 
 110   0.0000       1.141876        31.0720 
 111   0.0000       1.157852        31.5068 
 112   0.0000       1.182650        32.1815 
 113   0.0000       1.195838        32.5404 
 114   0.0000       1.232743        33.5446 
 115   0.0000       1.256684        34.1961 
 116   0.0000       1.270601        34.5748 
 117   0.0000       1.272841        34.6358 
 118   0.0000       1.290895        35.1270 
 119   0.0000       1.306796        35.5597 
 120   0.0000       1.310329        35.6559 
 121   0.0000       1.319102        35.8946 
 122   0.0000       1.354479        36.8572 
 123   0.0000       1.410662        38.3861 
 124   0.0000       1.453822        39.5605 
 125   0.0000       1.472086        40.0575 
 126   0.0000       1.511364        41.1263 
 127   0.0000       1.521976        41.4151 
 128   0.0000       1.524695        41.4890 
 129   0.0000       1.539345        41.8877 
 130   0.0000       1.551766        42.2257 
 131   0.0000       1.580021        42.9946 
 132   0.0000       1.585209        43.1357 
 133   0.0000       1.609003        43.7832 
 134   0.0000       1.620230        44.0887 
 135   0.0000       1.642169        44.6857 
 136   0.0000       1.676124        45.6097 
 137   0.0000       1.686014        45.8788 
 138   0.0000       1.697803        46.1996 
 139   0.0000       1.714587        46.6563 
 140   0.0000       1.736391        47.2496 
 141   0.0000       1.740497        47.3613 
 142   0.0000       1.751742        47.6673 
 143   0.0000       1.764352        48.0104 
 144   0.0000       1.800449        48.9927 
 145   0.0000       1.827416        49.7265 
 146   0.0000       1.830378        49.8071 
 147   0.0000       1.871658        50.9304 
 148   0.0000       1.895152        51.5697 
 149   0.0000       1.911868        52.0246 
 150   0.0000       1.939511        52.7768 
 151   0.0000       1.976633        53.7869 
 152   0.0000       2.018718        54.9321 
 153   0.0000       2.054614        55.9089 
 154   0.0000       2.073530        56.4236 
 155   0.0000       2.087619        56.8070 
 156   0.0000       2.103076        57.2276 
 157   0.0000       2.124746        57.8173 
 158   0.0000       2.170072        59.0507 
 159   0.0000       2.189642        59.5832 
 160   0.0000       2.204293        59.9819 
 161   0.0000       2.220526        60.4236 
 162   0.0000       2.233275        60.7705 
 163   0.0000       2.250770        61.2466 
 164   0.0000       2.283229        62.1298 
 165   0.0000       2.306670        62.7677 
 166   0.0000       2.347424        63.8767 
 167   0.0000       2.364657        64.3456 
 168   0.0000       2.404663        65.4342 
 169   0.0000       2.422016        65.9064 
 170   0.0000       2.423773        65.9542 
 171   0.0000       2.449092        66.6432 
 172   0.0000       2.474969        67.3473 
 173   0.0000       2.521396        68.6107 
 174   0.0000       2.527382        68.7736 
 175   0.0000       2.551505        69.4300 
 176   0.0000       2.603668        70.8494 
 177   0.0000       2.635277        71.7095 
 178   0.0000       2.657524        72.3149 
 179   0.0000       2.678060        72.8737 
 180   0.0000       2.703616        73.5691 
 181   0.0000       2.729186        74.2649 
 182   0.0000       2.765842        75.2624 
 183   0.0000       2.777565        75.5814 
 184   0.0000       2.795855        76.0791 
 185   0.0000       2.830324        77.0170 
 186   0.0000       2.869401        78.0804 
 187   0.0000       2.926376        79.6307 
 188   0.0000       3.000517        81.6482 
 189   0.0000       3.053461        83.0889 
 190   0.0000       3.057047        83.1865 
 191   0.0000       3.118992        84.8721 
 192   0.0000       3.203979        87.1847 
 193   0.0000       3.333046        90.6968 
 194   0.0000       3.371637        91.7469 
 195   0.0000       3.406603        92.6984 
 196   0.0000       3.468939        94.3946 
 197   0.0000       3.488100        94.9160 
 198   0.0000       3.523194        95.8710 
-------
TIMINGS
-------

Total SCF time: 0 days 0 hours 0 min 18 sec 

Total time                  ....      18.723 sec
Sum of individual times     ....      18.636 sec  ( 99.5%)

Fock matrix formation       ....      17.229 sec  ( 92.0%)
  Split-RI-J                ....       2.588 sec  ( 15.0% of F)
  Chain of spheres X        ....      13.452 sec  ( 78.1% of F)
  COS-X 1 center corr.      ....       0.000 sec  (  0.0% of F)
  XC integration            ....       1.154 sec  (  6.7% of F)
    Basis function eval.    ....       0.378 sec  ( 32.8% of XC)
    Density eval.           ....       0.169 sec  ( 14.7% of XC)
    XC-Functional eval.     ....       0.045 sec  (  3.9% of XC)
    XC-Potential eval.      ....       0.319 sec  ( 27.7% of XC)
Diagonalization             ....       0.010 sec  (  0.1%)
Density matrix formation    ....       0.023 sec  (  0.1%)
Population analysis         ....       0.000 sec  (  0.0%)
Initial guess               ....       0.011 sec  (  0.1%)
Orbital Transformation      ....       0.000 sec  (  0.0%)
Orbital Orthonormalization  ....       0.008 sec  (  0.0%)
DIIS solution               ....       0.002 sec  (  0.0%)
SOSCF solution              ....       0.129 sec  (  0.7%)
Grid generation             ....       1.232 sec  (  6.6%)


-------------------------------------------------------------------------------
                          DFT DISPERSION CORRECTION                            
                                                                               
                              DFTD3 V3.1  Rev 1                                
                          USING Becke-Johnson damping                          
-------------------------------------------------------------------------------
The B3LYP functional is recognized
Active option DFTDOPT                   ...         4   

molecular C6(AA) [au] = 4049.765596 


            DFT-D V3
 parameters
 s6 scaling factor         :     1.0000 
 a1 scaling factor         :     0.3981 
 s8 scaling factor         :     1.9889 
 a2 scaling factor         :     4.4211 
 ad hoc parameters k1-k3   :    16.0000     1.3333    -4.0000 

 Edisp/kcal,au: -18.592273064348  -0.029628669924 
 E6   /kcal   :  -9.138630607 
 E8   /kcal   :  -9.453642457 
 % E8         :  50.847157979 

-------------------------   ----------------
Dispersion correction           -0.029628670
-------------------------   ----------------


-------------------------   --------------------
FINAL SINGLE POINT ENERGY      -581.833154603500
-------------------------   --------------------

                                *** OPTIMIZATION RUN DONE ***

                            ***************************************
                            *     ORCA property calculations      *
                            ***************************************

                                    ---------------------
                                    Active property flags
                                    ---------------------
   (+) Dipole Moment


------------------------------------------------------------------------------
                       ORCA ELECTRIC PROPERTIES CALCULATION
------------------------------------------------------------------------------

Dipole Moment Calculation                       ... on
Quadrupole Moment Calculation                   ... off
Polarizability Calculation                      ... off
GBWName                                         ... AT-v/e/frag_23_c00001.gbw
Electron density file                           ... AT-v/e/frag_23_c00001.scfp.tmp
The origin for moment calculation is the CENTER OF MASS  = (-0.731022, -0.110469 -0.050317)

-------------
DIPOLE MOMENT
-------------
                                X             Y             Z
Electronic contribution:     -1.85643       0.75165      -0.41093
Nuclear contribution   :      2.10957      -0.70027       0.97870
                        -----------------------------------------
Total Dipole Moment    :      0.25313       0.05138       0.56778
                        -----------------------------------------
Magnitude (a.u.)       :      0.62377
Magnitude (Debye)      :      1.58549


Timings for individual modules:

Sum of individual times         ...      241.449 sec (=   4.024 min)
GTO integral calculation        ...        6.292 sec (=   0.105 min)   2.6 %
SCF iterations                  ...      192.333 sec (=   3.206 min)  79.7 %
SCF Gradient evaluation         ...       41.568 sec (=   0.693 min)  17.2 %
Geometry relaxation             ...        1.256 sec (=   0.021 min)   0.5 %
                             ****ORCA TERMINATED NORMALLY****
TOTAL RUN TIME: 0 days 0 hours 4 minutes 3 seconds 441 msec
