
                                 *****************
                                 * O   R   C   A *
                                 *****************

           --- An Ab Initio, DFT and Semiempirical electronic structure package ---

                  #######################################################
                  #                        -***-                        #
                  #  Department of molecular theory and spectroscopy    #
                  #              Directorship: Frank Neese              #
                  # Max Planck Institute for Chemical Energy Conversion #
                  #                  D-45470 Muelheim/Ruhr              #
                  #                       Germany                       #
                  #                                                     #
                  #                  All rights reserved                #
                  #                        -***-                        #
                  #######################################################


                         Program Version 4.0.1.2 - RELEASE -


 With contributions from (in alphabetic order):
   Daniel Aravena         : Magnetic Properties
   Michael Atanasov       : Ab Initio Ligand Field Theory
   Ute Becker             : Parallelization
   Martin Brehm           : Molecular dynamics
   Dmytro Bykov           : SCF Hessian
   Vijay G. Chilkuri      : MRCI spin determinant printing
   Dipayan Datta          : RHF DLPNO-CCSD density
   Achintya Kumar Dutta   : EOM-CC, STEOM-CC
   Dmitry Ganyushin       : Spin-Orbit,Spin-Spin,Magnetic field MRCI
   Yang Guo               : DLPNO-NEVPT2, CIM, IAO-localization
   Andreas Hansen         : Spin unrestricted coupled pair/coupled cluster methods
   Lee Huntington         : MR-EOM, pCC
   Robert Izsak           : Overlap fitted RIJCOSX, COSX-SCS-MP3, EOM
   Christian Kollmar      : KDIIS, OOCD, Brueckner-CCSD(T), CCSD density
   Simone Kossmann        : Meta GGA functionals, TD-DFT gradient, OOMP2, MP2 Hessian
   Martin Krupicka        : AUTO-CI
   Dagmar Lenk            : GEPOL surface
   Dimitrios Liakos       : Extrapolation schemes; parallel MDCI
   Dimitrios Manganas     : ROCIS; embedding schemes
   Dimitrios Pantazis     : SARC Basis sets
   Taras Petrenko         : DFT Hessian,TD-DFT gradient, ASA, ECA, R-Raman, ABS, FL, XAS/XES, NRVS
   Peter Pinski           : DLPNO-MP2
   Christoph Reimann      : Effective Core Potentials
   Marius Retegan         : Local ZFS, SOC
   Christoph Riplinger    : Optimizer, TS searches, QM/MM, DLPNO-CCSD(T), (RO)-DLPNO pert. Triples
   Tobias Risthaus        : Range-separated hybrids, TD-DFT gradient, RPA, STAB
   Michael Roemelt        : Restricted open shell CIS
   Masaaki Saitow         : Open-shell DLPNO
   Barbara Sandhoefer     : DKH picture change effects
   Kantharuban Sivalingam : CASSCF convergence, NEVPT2, FIC-MRCI
   Georgi Stoychev        : AutoAux
   Boris Wezisla          : Elementary symmetry handling
   Frank Wennmohs         : Technical directorship


 We gratefully acknowledge several colleagues who have allowed us to
 interface, adapt or use parts of their codes:
   Stefan Grimme, W. Hujo, H. Kruse,             : VdW corrections, initial TS optimization,
                  C. Bannwarth                     DFT functionals, gCP, sTDA/sTD-DF
   Ed Valeev                                     : LibInt (2-el integral package), F12 methods
   Garnet Chan, S. Sharma, J. Yang, R. Olivares  : DMRG
   Ulf Ekstrom                                   : XCFun DFT Library
   Mihaly Kallay                                 : mrcc  (arbitrary order and MRCC methods)
   Andreas Klamt, Michael Diedenhofen            : otool_cosmo (COSMO solvation model)
   Jiri Pittner, Ondrej Demel                    : Mk-CCSD
   Frank Weinhold                                : gennbo (NPA and NBO analysis)
   Christopher J. Cramer and Donald G. Truhlar   : smd solvation model


 Your calculation uses the libint2 library for the computation of 2-el integrals
 For citations please refer to: http://libint.valeyev.net

 This ORCA versions uses:
   CBLAS   interface :  Fast vector & matrix operations
   LAPACKE interface :  Fast linear algebra routines
   SCALAPACK package :  Parallel linear algebra routines


Your calculation utilizes the atom-pairwise dispersion correction
with the Becke-Johnson damping scheme (D3BJ)
Cite in your paper:
S.Grimme, S.Ehrlich, L.Goerigk, J Comput Chem, (2011), 32, 1456–1465 
S.Grimme, J.Antony, S.Ehrlich and H.Krieg, J.Chem.Phys., 132, (2010), 154104 
   

Your calculation utilizes the basis: cc-pVDZ 
       H, B-Ne : Obtained from the ccRepo (grant-hill.group.shef.ac.uk/ccrepo) Feb. 2017
                 T. H. Dunning, Jr., J. Chem. Phys. 90, 1007 (1989)
            He : Obtained from the ccRepo (grant-hill.group.shef.ac.uk/ccrepo) Feb. 2017
                 D. E. Woon, T. H. Dunning, Jr., J. Chem. Phys. 100, 2975 (1994)
  Li-Be, Na-Mg : Obtained from the ccRepo (grant-hill.group.shef.ac.uk/ccrepo) Feb. 2017
                 B. P. Prascher, D. E. Woon, K. A. Peterson, T. H. Dunning, Jr., A. K. Wilson, Theor. Chem. Acc. 128, 69 (2011)
         Al-Ar : Obtained from the ccRepo (grant-hill.group.shef.ac.uk/ccrepo) Feb. 2017
                 D. E. Woon, T. H. Dunning, Jr., J. Chem. Phys. 98, 1358 (1993)
            Ca : Obtained from the Peterson Research Group Website (tyr0.chem.wsu.edu/~kipeters) Feb. 2017
                 J. Koput, K. A. Peterson, J. Phys. Chem. 106, 9595 (2002)
         Sc-Zn : Obtained from the ccRepo (grant-hill.group.shef.ac.uk/ccrepo) Feb. 2017
                 N. B. Balabanov, K. A. Peterson, J. Chem. Phys. 123, 064107 (2005)
                 N. B. Balabanov, K. A. Peterson, J. Chem. Phys. 125, 074110 (2006)
         Ga-Kr : Obtained from the ccRepo (grant-hill.group.shef.ac.uk/ccrepo) Feb. 2017
                 A. K. Wilson, D. E. Woon, K. A. Peterson, T. H. Dunning, Jr., J. Chem. Phys. 110, 7667 (1999)

Your calculation utilizes the auxiliary basis: def2/J
   F. Weigend, Phys. Chem. Chem. Phys. 8, 1057 (2006).

================================================================================
                                        WARNINGS
                       Please study these warnings very carefully!
================================================================================

Warning: TCutStore was < 0. Adjusted to Thresh (uncritical)

WARNING: Geometry Optimization
  ===> : Switching off AutoStart
         For restart on a previous wavefunction, please use MOREAD

INFO   : the flag for use of LIBINT has been found!

================================================================================
                                       INPUT FILE
================================================================================
NAME = AT-v/e/frag_25_c00001.com
|  1> %pal nprocs 6 end
|  2> %maxcore 1000
|  3> ! b3lyp TIGHTSCF nopop D3BJ
|  4> ! cc-pvdz def2/J RIJCOSX
|  5> ! Opt
|  6> 
|  7> %geom
|  8> maxiter 60
|  9> TolE 1e-4
| 10> TolRMSG 2e-3
| 11> TolMaxG 3e-3
| 12> TolRMSD 2e-2
| 13> TolMaxD 3e-2
| 14> end
| 15> 
| 16> *xyz 0 1
| 17> C 1.5841 -0.7281 0.0308
| 18> N 1.0248 -1.9363 -0.1827
| 19> N 0.9058 0.3625 0.0833
| 20> N -3.8368 1.5658 -0.0575
| 21> C -2.4674 1.6491 -0.0577
| 22> O -1.8974 2.7337 -0.1187
| 23> N -1.8085 0.4536 0.0143
| 24> C -2.4031 -0.7748 0.0822
| 25> O -1.7795 -1.8312 0.1459
| 26> C -3.8808 -0.7784 0.0774
| 27> C -4.5254 0.3882 0.0076
| 28> H 2.6813 -0.7518 0.1469
| 29> H 1.4674 -2.7418 0.2404
| 30> H 0.004 -1.9591 -0.0866
| 31> H 1.5534 1.149 0.237
| 32> H -4.3258 2.4517 -0.1122
| 33> H -0.7859 0.4832 0.0121
| 34> H -4.3818 -1.7349 0.13
| 35> H -5.6084 0.4538 -0.0008
| 36> *
| 37> 
| 38> 
| 39>                          ****END OF INPUT****
================================================================================

                       *****************************
                       * Geometry Optimization Run *
                       *****************************

Geometry optimization settings:
Update method            Update   .... BFGS
Choice of coordinates    CoordSys .... Redundant Internals
Initial Hessian          InHess   .... Almoef's Model

Convergence Tolerances:
Energy Change            TolE     ....  1.0000e-04 Eh
Max. Gradient            TolMAXG  ....  3.0000e-03 Eh/bohr
RMS Gradient             TolRMSG  ....  2.0000e-03 Eh/bohr
Max. Displacement        TolMAXD  ....  3.0000e-02 bohr
RMS Displacement         TolRMSD  ....  2.0000e-02 bohr

------------------------------------------------------------------------------
                        ORCA OPTIMIZATION COORDINATE SETUP
------------------------------------------------------------------------------

The optimization will be done in new redundant internal coordinates
Making redundant internal coordinates   ...  (new redundants) done
Evaluating the initial hessian          ...  (Almloef) done
Evaluating the coordinates              ...  done
Calculating the B-matrix                .... done
Calculating the G-matrix                .... done
Diagonalizing the G-matrix              .... done
The first mode is                       ....   40
The number of degrees of freedom        ....   51

    -----------------------------------------------------------------
                    Redundant Internal Coordinates


    -----------------------------------------------------------------
         Definition                    Initial Value    Approx d2E/dq
    -----------------------------------------------------------------
      1. B(N   1,C   0)                  1.3484         0.652030   
      2. B(N   2,C   0)                  1.2854         0.821782   
      3. B(C   4,N   3)                  1.3719         0.598003   
      4. B(O   5,C   4)                  1.2268         1.019271   
      5. B(N   6,C   4)                  1.3670         0.609045   
      6. B(C   7,N   6)                  1.3664         0.610215   
      7. B(O   8,C   7)                  1.2284         1.013284   
      8. B(C   9,C   7)                  1.4777         0.452688   
      9. B(C  10,C   9)                  1.3347         0.765629   
     10. B(C  10,N   3)                  1.3657         0.611839   
     11. B(H  11,C   0)                  1.1036         0.342576   
     12. B(H  12,N   1)                  1.0118         0.429857   
     13. B(H  13,N   1)                  1.0256         0.408657   
     14. B(H  13,O   8)                  1.8031         0.023486   
     15. B(H  14,N   2)                  1.0303         0.401560   
     16. B(H  15,N   3)                  1.0134         0.427374   
     17. B(H  16,N   2)                  1.6975         0.034621   
     18. B(H  16,N   6)                  1.0230         0.412482   
     19. B(H  17,C   9)                  1.0810         0.372142   
     20. B(H  18,C  10)                  1.0850         0.366752   
     21. A(N   1,C   0,N   2)          123.2179         0.454908   
     22. A(N   1,C   0,H  11)          114.1928         0.350766   
     23. A(N   2,C   0,H  11)          122.5863         0.364840   
     24. A(C   0,N   1,H  12)          117.7543         0.361353   
     25. A(H  12,N   1,H  13)          112.2422         0.300186   
     26. A(C   0,N   1,H  13)          114.7051         0.358253   
     27. A(H  14,N   2,H  16)          125.3358         0.207941   
     28. A(C   0,N   2,H  16)          125.7684         0.251281   
     29. A(C   0,N   2,H  14)          108.7887         0.371607   
     30. A(C  10,N   3,H  15)          120.8684         0.357107   
     31. A(C   4,N   3,H  15)          115.3767         0.355723   
     32. A(C   4,N   3,C  10)          123.7548         0.424639   
     33. A(N   3,C   4,N   6)          115.3422         0.424291   
     34. A(N   3,C   4,O   5)          121.1622         0.465739   
     35. A(O   5,C   4,N   6)          123.4956         0.467302   
     36. A(C   4,N   6,C   7)          125.3870         0.425829   
     37. A(C   7,N   6,H  16)          117.4571         0.354804   
     38. A(C   4,N   6,H  16)          117.1551         0.354688   
     39. A(N   6,C   7,C   9)          115.9237         0.406566   
     40. A(N   6,C   7,O   8)          123.6964         0.466962   
     41. A(O   8,C   7,C   9)          120.3798         0.445192   
     42. A(C   7,O   8,H  13)          123.8105         0.244852   
     43. A(C  10,C   9,H  17)          123.5107         0.367886   
     44. A(C   7,C   9,H  17)          117.7383         0.336612   
     45. A(C   7,C   9,C  10)          118.7509         0.426074   
     46. A(C   9,C  10,H  18)          122.3656         0.366966   
     47. A(N   3,C  10,H  18)          116.7931         0.351037   
     48. A(N   3,C  10,C   9)          120.8413         0.446890   
     49. A(N   1,H  13,O   8)          174.2795         0.198373   
     50. A(N   2,H  16,N   6)          173.7306         0.208666   
     51. D(H  12,N   1,C   0,H  11)     31.6946         0.034715   
     52. D(H  12,N   1,C   0,N   2)   -148.9251         0.034715   
     53. D(H  13,N   1,C   0,N   2)    -13.4523         0.034715   
     54. D(H  13,N   1,C   0,H  11)    167.1674         0.034715   
     55. D(H  14,N   2,C   0,H  11)      0.4226         0.057962   
     56. D(H  16,N   2,C   0,N   1)      4.7043         0.057962   
     57. D(H  14,N   2,C   0,N   1)   -178.9065         0.057962   
     58. D(H  16,N   2,C   0,H  11)   -175.9665         0.057962   
     59. D(N   6,C   4,N   3,H  15)   -179.9161         0.028802   
     60. D(N   6,C   4,N   3,C  10)     -0.0639         0.028802   
     61. D(O   5,C   4,N   3,H  15)      0.1028         0.028802   
     62. D(O   5,C   4,N   3,C  10)    179.9549         0.028802   
     63. D(H  16,N   6,C   4,N   3)    179.7516         0.029955   
     64. D(C   7,N   6,C   4,O   5)   -179.9293         0.029955   
     65. D(C   7,N   6,C   4,N   3)      0.0900         0.029955   
     66. D(H  16,N   6,C   4,O   5)     -0.2678         0.029955   
     67. D(C   9,C   7,N   6,H  16)   -179.7493         0.030079   
     68. D(C   9,C   7,N   6,C   4)     -0.0886         0.030079   
     69. D(O   8,C   7,N   6,H  16)      0.3326         0.030079   
     70. D(O   8,C   7,N   6,C   4)    179.9933         0.030079   
     71. D(H  13,O   8,C   7,C   9)    170.5655         0.084451   
     72. D(H  13,O   8,C   7,N   6)     -9.5199         0.084451   
     73. D(H  17,C   9,C   7,O   8)     -0.0875         0.013966   
     74. D(H  17,C   9,C   7,N   6)    179.9915         0.013966   
     75. D(C  10,C   9,C   7,O   8)    179.9807         0.013966   
     76. D(C  10,C   9,C   7,N   6)      0.0597         0.013966   
     77. D(H  18,C  10,N   3,H  15)     -0.0946         0.030251   
     78. D(H  18,C  10,N   3,C   4)   -179.9390         0.030251   
     79. D(C   9,C  10,N   3,H  15)    179.8884         0.030251   
     80. D(N   3,C  10,C   9,C   7)     -0.0399         0.041974   
     81. D(C   9,C  10,N   3,C   4)      0.0441         0.030251   
     82. D(H  18,C  10,C   9,H  17)      0.0145         0.041974   
     83. D(H  18,C  10,C   9,C   7)    179.9421         0.041974   
     84. D(N   3,C  10,C   9,H  17)   -179.9676         0.041974   
     85. D(N   1,H  13,O   8,C   7)     29.1156         0.001760   
     86. D(O   8,H  13,N   1,H  12)    129.4229         0.187199   
     87. D(O   8,H  13,N   1,C   0)     -8.4746         0.187199   
     88. D(N   2,H  16,N   6,C   7)    -20.6617         0.191627   
     89. D(N   2,H  16,N   6,C   4)    159.6492         0.191627   
     90. D(N   6,H  16,N   2,H  14)   -147.4906         0.002163   
     91. D(N   6,H  16,N   2,C   0)     28.3180         0.002163   
    -----------------------------------------------------------------

Number of atoms                         .... 19
Number of degrees of freedom            .... 91

         *************************************************************
         *                GEOMETRY OPTIMIZATION CYCLE   1            *
         *************************************************************
---------------------------------
CARTESIAN COORDINATES (ANGSTROEM)
---------------------------------
  C      1.584100   -0.728100    0.030800
  N      1.024800   -1.936300   -0.182700
  N      0.905800    0.362500    0.083300
  N     -3.836800    1.565800   -0.057500
  C     -2.467400    1.649100   -0.057700
  O     -1.897400    2.733700   -0.118700
  N     -1.808500    0.453600    0.014300
  C     -2.403100   -0.774800    0.082200
  O     -1.779500   -1.831200    0.145900
  C     -3.880800   -0.778400    0.077400
  C     -4.525400    0.388200    0.007600
  H      2.681300   -0.751800    0.146900
  H      1.467400   -2.741800    0.240400
  H      0.004000   -1.959100   -0.086600
  H      1.553400    1.149000    0.237000
  H     -4.325800    2.451700   -0.112200
  H     -0.785900    0.483200    0.012100
  H     -4.381800   -1.734900    0.130000
  H     -5.608400    0.453800   -0.000800

----------------------------
CARTESIAN COORDINATES (A.U.)
----------------------------
  NO LB      ZA    FRAG     MASS         X           Y           Z
   0 C     6.0000    0    12.011    2.993515   -1.375910    0.058204
   1 N     7.0000    0    14.007    1.936591   -3.659077   -0.345253
   2 N     7.0000    0    14.007    1.711714    0.685026    0.157414
   3 N     7.0000    0    14.007   -7.250501    2.958933   -0.108659
   4 C     6.0000    0    12.011   -4.662710    3.116347   -0.109037
   5 O     8.0000    0    15.999   -3.585566    5.165944   -0.224310
   6 N     7.0000    0    14.007   -3.417570    0.857180    0.027023
   7 C     6.0000    0    12.011   -4.541201   -1.464160    0.155335
   8 O     8.0000    0    15.999   -3.362768   -3.460466    0.275711
   9 C     6.0000    0    12.011   -7.333649   -1.470963    0.146265
  10 C     6.0000    0    12.011   -8.551767    0.733592    0.014362
  11 H     1.0000    0     1.008    5.066923   -1.420696    0.277601
  12 H     1.0000    0     1.008    2.772984   -5.181251    0.454290
  13 H     1.0000    0     1.008    0.007559   -3.702162   -0.163650
  14 H     1.0000    0     1.008    2.935501    2.171295    0.447865
  15 H     1.0000    0     1.008   -8.174577    4.633042   -0.212027
  16 H     1.0000    0     1.008   -1.485136    0.913116    0.022866
  17 H     1.0000    0     1.008   -8.280402   -3.278486    0.245664
  18 H     1.0000    0     1.008  -10.598340    0.857558   -0.001512

--------------------------------
INTERNAL COORDINATES (ANGSTROEM)
--------------------------------
 C      0   0   0     0.000000000000     0.00000000     0.00000000
 N      1   0   0     1.348386435708     0.00000000     0.00000000
 N      1   2   0     1.285400910222   123.21787880     0.00000000
 N      3   1   2     4.894896351303   135.94517168     4.56258800
 C      4   3   1     1.371931226410    17.79259013   190.24955301
 O      5   4   3     1.226775513287   121.16224508   182.10141255
 N      5   4   3     1.366950423388   115.34216183     2.08252814
 C      7   5   4     1.366428238145   125.38700720     0.09003919
 O      8   7   5     1.228379261466   123.69640731   179.99326088
 C      8   7   5     1.477712181042   115.92372230   359.91135594
 C     10   8   7     1.334667284382   118.75094857     0.05965150
 H      1   2   3     1.103579965385   114.19282704   180.61970625
 H      2   1   3     1.011799693615   117.75429874   211.07492598
 H      2   1   3     1.025567009025   114.70506773   346.54768186
 H      3   1   2     1.030335721986   108.78867427   181.09346469
 H      4   3   1     1.013376484827   133.15608870   187.77392503
 H      7   5   4     1.023030674027   117.15511699   179.75159845
 H     10   8   7     1.081045794590   117.73829944   179.99151404
 H     11  10   8     1.085017474514   122.36562530   179.94213889

---------------------------
INTERNAL COORDINATES (A.U.)
---------------------------
 C      0   0   0     0.000000000000     0.00000000     0.00000000
 N      1   0   0     2.548081086181     0.00000000     0.00000000
 N      1   2   0     2.429055692613   123.21787880     0.00000000
 N      3   1   2     9.250013557893   135.94517168     4.56258800
 C      4   3   1     2.592574292490    17.79259013   190.24955301
 O      5   4   3     2.318269747913   121.16224508   182.10141255
 N      5   4   3     2.583161938851   115.34216183     2.08252814
 C      7   5   4     2.582175151751   125.38700720     0.09003919
 O      8   7   5     2.321300392759   123.69640731   179.99326088
 C      8   7   5     2.792471326929   115.92372230   359.91135594
 C     10   8   7     2.522155647387   118.75094857     0.05965150
 H      1   2   3     2.085463901461   114.19282704   180.61970625
 H      2   1   3     1.912024323318   117.75429874   211.07492598
 H      2   1   3     1.938040779042   114.70506773   346.54768186
 H      3   1   2     1.947052340549   108.78867427   181.09346469
 H      4   3   1     1.915004026879   133.15608870   187.77392503
 H      7   5   4     1.933247800512   117.15511699   179.75159845
 H     10   8   7     2.042880490002   117.73829944   179.99151404
 H     11  10   8     2.050385877350   122.36562530   179.94213889

---------------------
BASIS SET INFORMATION
---------------------
There are 4 groups of distinct atoms

 Group   1 Type C   : 17s4p1d contracted to 3s2p1d pattern {881/31/1}
 Group   2 Type N   : 17s4p1d contracted to 3s2p1d pattern {881/31/1}
 Group   3 Type O   : 17s4p1d contracted to 3s2p1d pattern {881/31/1}
 Group   4 Type H   : 4s1p contracted to 2s1p pattern {31/1}

Atom   0C    basis set group =>   1
Atom   1N    basis set group =>   2
Atom   2N    basis set group =>   2
Atom   3N    basis set group =>   2
Atom   4C    basis set group =>   1
Atom   5O    basis set group =>   3
Atom   6N    basis set group =>   2
Atom   7C    basis set group =>   1
Atom   8O    basis set group =>   3
Atom   9C    basis set group =>   1
Atom  10C    basis set group =>   1
Atom  11H    basis set group =>   4
Atom  12H    basis set group =>   4
Atom  13H    basis set group =>   4
Atom  14H    basis set group =>   4
Atom  15H    basis set group =>   4
Atom  16H    basis set group =>   4
Atom  17H    basis set group =>   4
Atom  18H    basis set group =>   4
-------------------------------
AUXILIARY BASIS SET INFORMATION
-------------------------------
There are 4 groups of distinct atoms

 Group   1 Type C   : 12s5p4d2f1g contracted to 6s4p3d1f1g pattern {711111/2111/211/2/1}
 Group   2 Type N   : 12s5p4d2f1g contracted to 6s4p3d1f1g pattern {711111/2111/211/2/1}
 Group   3 Type O   : 12s5p4d2f1g contracted to 6s4p3d1f1g pattern {711111/2111/211/2/1}
 Group   4 Type H   : 5s2p1d contracted to 3s1p1d pattern {311/2/1}

Atom   0C    basis set group =>   1
Atom   1N    basis set group =>   2
Atom   2N    basis set group =>   2
Atom   3N    basis set group =>   2
Atom   4C    basis set group =>   1
Atom   5O    basis set group =>   3
Atom   6N    basis set group =>   2
Atom   7C    basis set group =>   1
Atom   8O    basis set group =>   3
Atom   9C    basis set group =>   1
Atom  10C    basis set group =>   1
Atom  11H    basis set group =>   4
Atom  12H    basis set group =>   4
Atom  13H    basis set group =>   4
Atom  14H    basis set group =>   4
Atom  15H    basis set group =>   4
Atom  16H    basis set group =>   4
Atom  17H    basis set group =>   4
Atom  18H    basis set group =>   4


           ************************************************************
           *        Program running with 6 parallel MPI-processes     *
           *              working on a common directory               *
           ************************************************************
------------------------------------------------------------------------------
                           ORCA GTO INTEGRAL CALCULATION
                           -- RI-GTO INTEGRALS CHOSEN --
------------------------------------------------------------------------------

                         BASIS SET STATISTICS AND STARTUP INFO

Gaussian basis set:
 # of primitive gaussian shells          ...  282
 # of primitive gaussian functions       ...  430
 # of contracted shells                  ...   90
 # of contracted basis functions         ...  194
 Highest angular momentum                ...    2
 Maximum contraction depth               ...    8
Auxiliary gaussian basis set:
 # of primitive gaussian shells          ...  328
 # of primitive gaussian functions       ...  898
 # of contracted shells                  ...  205
 # of contracted aux-basis functions     ...  627
 Highest angular momentum                ...    4
 Maximum contraction depth               ...    7
Ratio of auxiliary to basis functions    ...  3.23
Integral package used                  ... LIBINT
 One Electron integrals                  ... done
 Ordering auxiliary basis shells         ... done
 Integral threshhold             Thresh  ...  2.500e-11
 Primitive cut-off               TCut    ...  2.500e-12
 Pre-screening matrix                    ... done
 Shell pair data                         ... 
 Ordering of the shell pairs             ... done (   0.001 sec) 3660 of 4095 pairs
 Determination of significant pairs      ... done (   0.000 sec)
 Creation of shell pair data             ... done (   0.001 sec)
 Storage of shell pair data              ... done (   0.004 sec)
 Shell pair data done in (   0.006 sec)
 Computing two index integrals           ... done
 Cholesky decomposition of the V-matrix  ... done


Timings:
 Total evaluation time                   ...   0.468 sec (  0.008 min)
 One electron matrix time                ...   0.065 sec (  0.001 min) = 13.8%
 Schwartz matrix evaluation time         ...   0.295 sec (  0.005 min) = 63.1%
 Two index repulsion integral time       ...   0.064 sec (  0.001 min) = 13.8%
 Cholesky decomposition of V             ...   0.013 sec (  0.000 min) =  2.8%
 Three index repulsion integral time     ...   0.000 sec (  0.000 min) =  0.0%



           ************************************************************
           *        Program running with 6 parallel MPI-processes     *
           *              working on a common directory               *
           ************************************************************
-------------------------------------------------------------------------------
                                 ORCA SCF
-------------------------------------------------------------------------------

------------
SCF SETTINGS
------------
Hamiltonian:
 Density Functional     Method          .... DFT(GTOs)
 Exchange Functional    Exchange        .... B88
   X-Alpha parameter    XAlpha          ....  0.666667
   Becke's b parameter  XBeta           ....  0.004200
 Correlation Functional Correlation     .... LYP
 LDA part of GGA corr.  LDAOpt          .... VWN-5
 Gradients option       PostSCFGGA      .... off
 Hybrid DFT is turned on
   Fraction HF Exchange ScalHFX         ....  0.200000
   Scaling of DF-GGA-X  ScalDFX         ....  0.720000
   Scaling of DF-GGA-C  ScalDFC         ....  0.810000
   Scaling of DF-LDA-C  ScalLDAC        ....  1.000000
   Perturbative correction              ....  0.000000
   NL short-range parameter             ....  4.800000
 RI-approximation to the Coulomb term is turned on
   Number of auxiliary basis functions  .... 627
   RIJ-COSX (HFX calculated with COS-X)).... on


General Settings:
 Integral files         IntName         .... AT-v/e/frag_25_c00001
 Hartree-Fock type      HFTyp           .... RHF
 Total Charge           Charge          ....    0
 Multiplicity           Mult            ....    1
 Number of Electrons    NEL             ....   82
 Basis Dimension        Dim             ....  194
 Nuclear Repulsion      ENuc            ....    603.3119879171 Eh

Convergence Acceleration:
 DIIS                   CNVDIIS         .... on
   Start iteration      DIISMaxIt       ....    12
   Startup error        DIISStart       ....  0.200000
   # of expansion vecs  DIISMaxEq       ....     5
   Bias factor          DIISBfac        ....   1.050
   Max. coefficient     DIISMaxC        ....  10.000
 Newton-Raphson         CNVNR           .... off
 SOSCF                  CNVSOSCF        .... on
   Start iteration      SOSCFMaxIt      ....   150
   Startup grad/error   SOSCFStart      ....  0.003300
 Level Shifting         CNVShift        .... on
   Level shift para.    LevelShift      ....    0.2500
   Turn off err/grad.   ShiftErr        ....    0.0010
 Zerner damping         CNVZerner       .... off
 Static damping         CNVDamp         .... on
   Fraction old density DampFac         ....    0.7000
   Max. Damping (<1)    DampMax         ....    0.9800
   Min. Damping (>=0)   DampMin         ....    0.0000
   Turn off err/grad.   DampErr         ....    0.1000
 Fernandez-Rico         CNVRico         .... off

SCF Procedure:
 Maximum # iterations   MaxIter         ....   125
 SCF integral mode      SCFMode         .... Direct
   Integral package                     .... LIBINT
 Reset frequeny         DirectResetFreq ....    20
 Integral Threshold     Thresh          ....  2.500e-11 Eh
 Primitive CutOff       TCut            ....  2.500e-12 Eh

Convergence Tolerance:
 Convergence Check Mode ConvCheckMode   .... Total+1el-Energy
 Convergence forced     ConvForced      .... 0
 Energy Change          TolE            ....  1.000e-08 Eh
 1-El. energy change                    ....  1.000e-05 Eh
 Orbital Gradient       TolG            ....  1.000e-05
 Orbital Rotation angle TolX            ....  1.000e-05
 DIIS Error             TolErr          ....  5.000e-07


Diagonalization of the overlap matrix:
Smallest eigenvalue                        ... 1.328e-03
Time for diagonalization                   ...    0.009 sec
Threshold for overlap eigenvalues          ... 1.000e-08
Number of eigenvalues below threshold      ... 0
Time for construction of square roots      ...    0.004 sec
Total time needed                          ...    0.013 sec

-------------------
DFT GRID GENERATION
-------------------

General Integration Accuracy     IntAcc      ...  4.340
Radial Grid Type                 RadialGrid  ... Gauss-Chebyshev
Angular Grid (max. acc.)         AngularGrid ... Lebedev-110
Angular grid pruning method      GridPruning ... 3 (G Style)
Weight generation scheme         WeightScheme... Becke
Basis function cutoff            BFCut       ...    1.0000e-11
Integration weight cutoff        WCut        ...    1.0000e-14
Grids for H and He will be reduced by one unit

# of grid points (after initial pruning)     ...  24872 (   0.0 sec)
# of grid points (after weights+screening)   ...  23038 (   0.0 sec)
nearest neighbour list constructed           ...    0.0 sec
Grid point re-assignment to atoms done       ...    0.0 sec
Grid point division into batches done        ...    0.0 sec
Reduced shell lists constructed in    0.1 sec

Total number of grid points                  ...    23038
Total number of batches                      ...      368
Average number of points per batch           ...       62
Average number of grid points per atom       ...     1213
Average number of shells per batch           ...    60.70 (67.44%)
Average number of basis functions per batch  ...   125.97 (64.93%)
Average number of large shells per batch     ...    43.40 (71.50%)
Average number of large basis fcns per batch ...    90.98 (72.23%)
Maximum spatial batch extension              ...  10.33,  8.96, 18.65 au
Average spatial batch extension              ...   0.33,  0.34,  0.55 au

Time for grid setup =    0.139 sec

------------------------------
INITIAL GUESS: MODEL POTENTIAL
------------------------------
Loading Hartree-Fock densities                     ... done
Calculating cut-offs                               ... done
Setting up the integral package                    ... done
Initializing the effective Hamiltonian             ... done
Starting the Coulomb interaction                   ... done (   0.1 sec)
Reading the grid                                   ... done
Mapping shells                                     ... done
Starting the XC term evaluation                    ... done (   0.1 sec)
  promolecular density results
     # of electrons  =     82.001933363
     EX              =    -70.832291902
     EC              =     -2.841149833
     EX+EC           =    -73.673441735
Transforming the Hamiltonian                       ... done (   0.0 sec)
Diagonalizing the Hamiltonian                      ... done (   0.0 sec)
Back transforming the eigenvectors                 ... done (   0.0 sec)
Now organizing SCF variables                       ... done
                      ------------------
                      INITIAL GUESS DONE (   0.5 sec)
                      ------------------
--------------------
COSX GRID GENERATION
--------------------

General Integration Accuracy     IntAcc      ...  3.340
Radial Grid Type                 RadialGrid  ... Gauss-Chebyshev
Angular Grid (max. acc.)         AngularGrid ... Lebedev-50
Angular grid pruning method      GridPruning ... 3 (G Style)
Weight generation scheme         WeightScheme... Becke
Basis function cutoff            BFCut       ...    1.0000e-11
Integration weight cutoff        WCut        ...    1.0000e-14
Grids for H and He will be reduced by one unit

# of grid points (after initial pruning)     ...   8884 (   0.0 sec)
# of grid points (after weights+screening)   ...   8322 (   0.0 sec)
nearest neighbour list constructed           ...    0.0 sec
Grid point re-assignment to atoms done       ...    0.0 sec
Grid point division into batches done        ...    0.0 sec
Reduced shell lists constructed in    0.0 sec

Total number of grid points                  ...     8322
Total number of batches                      ...      139
Average number of points per batch           ...       59
Average number of grid points per atom       ...      438
Average number of shells per batch           ...    60.76 (67.51%)
Average number of basis functions per batch  ...   126.60 (65.26%)
Average number of large shells per batch     ...    43.52 (71.63%)
Average number of large basis fcns per batch ...    90.64 (71.60%)
Maximum spatial batch extension              ...   5.32,  8.30, 17.82 au
Average spatial batch extension              ...   0.40,  0.44,  0.89 au

Overlap Fitting                  UseSFitting ... on
Constructing numerical overlap ... done (      0.0 sec)
Inverting numerical overlap    ... done (      0.0 sec)
Obtaining analytic overlap     ... done (      0.0 sec)
Final contraction and storage  ... done (      0.0 sec)


General Integration Accuracy     IntAcc      ...  3.670
Radial Grid Type                 RadialGrid  ... Gauss-Chebyshev
Angular Grid (max. acc.)         AngularGrid ... Lebedev-50
Angular grid pruning method      GridPruning ... 3 (G Style)
Weight generation scheme         WeightScheme... Becke
Basis function cutoff            BFCut       ...    1.0000e-11
Integration weight cutoff        WCut        ...    1.0000e-14
Grids for H and He will be reduced by one unit

# of grid points (after initial pruning)     ...  11302 (   0.0 sec)
# of grid points (after weights+screening)   ...  10553 (   0.0 sec)
nearest neighbour list constructed           ...    0.0 sec
Grid point re-assignment to atoms done       ...    0.0 sec
Grid point division into batches done        ...    0.0 sec
Reduced shell lists constructed in    0.0 sec

Total number of grid points                  ...    10553
Total number of batches                      ...      173
Average number of points per batch           ...       61
Average number of grid points per atom       ...      555
Average number of shells per batch           ...    61.27 (68.07%)
Average number of basis functions per batch  ...   127.80 (65.88%)
Average number of large shells per batch     ...    43.03 (70.24%)
Average number of large basis fcns per batch ...    89.83 (70.29%)
Maximum spatial batch extension              ...   5.06,  9.28, 21.83 au
Average spatial batch extension              ...   0.35,  0.41,  0.82 au

Overlap Fitting                  UseSFitting ... on
Constructing numerical overlap ... done (      0.0 sec)
Inverting numerical overlap    ... done (      0.0 sec)
Obtaining analytic overlap     ... done (      0.0 sec)
Final contraction and storage  ... done (      0.0 sec)


General Integration Accuracy     IntAcc      ...  4.010
Radial Grid Type                 RadialGrid  ... Gauss-Chebyshev
Angular Grid (max. acc.)         AngularGrid ... Lebedev-110
Angular grid pruning method      GridPruning ... 3 (G Style)
Weight generation scheme         WeightScheme... Becke
Basis function cutoff            BFCut       ...    1.0000e-11
Integration weight cutoff        WCut        ...    1.0000e-14
Grids for H and He will be reduced by one unit

# of grid points (after initial pruning)     ...  21400 (   0.0 sec)
# of grid points (after weights+screening)   ...  19860 (   0.0 sec)
nearest neighbour list constructed           ...    0.0 sec
Grid point re-assignment to atoms done       ...    0.0 sec
Grid point division into batches done        ...    0.0 sec
Reduced shell lists constructed in    0.1 sec

Total number of grid points                  ...    19860
Total number of batches                      ...      320
Average number of points per batch           ...       62
Average number of grid points per atom       ...     1045
Average number of shells per batch           ...    60.60 (67.33%)
Average number of basis functions per batch  ...   125.87 (64.88%)
Average number of large shells per batch     ...    43.36 (71.56%)
Average number of large basis fcns per batch ...    90.64 (72.01%)
Maximum spatial batch extension              ...   9.31,  8.83, 18.27 au
Average spatial batch extension              ...   0.34,  0.35,  0.56 au

Overlap Fitting                  UseSFitting ... on
Constructing numerical overlap ... done (      0.0 sec)
Inverting numerical overlap    ... done (      0.0 sec)
Obtaining analytic overlap     ... done (      0.0 sec)
Final contraction and storage  ... done (      0.0 sec)

Time for X-Grid setup             =    0.384 sec
--------------
SCF ITERATIONS
--------------
ITER       Energy         Delta-E        Max-DP      RMS-DP      [F,P]     Damp
               ***  Starting incremental Fock matrix formation  ***
  0   -564.1408462798   0.000000000000 0.10965851  0.00278431  0.2918902 0.7000
  1   -564.3544803567  -0.213634076949 0.06176858  0.00174945  0.1128461 0.7000
                               ***Turning on DIIS***
  2   -564.4277804681  -0.073300111337 0.07475836  0.00233190  0.0477651 0.0000
  3   -564.5544203608  -0.126639892746 0.04005900  0.00122834  0.0626629 0.0000
  4   -564.5782403515  -0.023819990732 0.01231000  0.00033630  0.0175969 0.0000
  5   -564.5804997292  -0.002259377708 0.00286196  0.00010118  0.0041869 0.0000
                      *** Initiating the SOSCF procedure ***
                           *** Shutting down DIIS ***
                      *** Re-Reading the Fockian *** 
                      *** Removing any level shift *** 
ITER      Energy       Delta-E        Grad      Rot      Max-DP    RMS-DP
  6   -564.58059077  -0.0000910406  0.000515  0.000515  0.001103  0.000037
               *** Restarting incremental Fock matrix formation ***
  7   -564.58061604  -0.0000252662  0.000233  0.000869  0.001097  0.000024
  8   -564.58061525   0.0000007859  0.000538  0.000722  0.000806  0.000012
  9   -564.58061757  -0.0000023214  0.000082  0.000164  0.000177  0.000006
 10   -564.58061755   0.0000000220  0.000046  0.000065  0.000122  0.000003
 11   -564.58061767  -0.0000001215  0.000006  0.000024  0.000048  0.000001
 12   -564.58061767  -0.0000000029  0.000013  0.000018  0.000036  0.000001
 13   -564.58061768  -0.0000000019  0.000003  0.000005  0.000008  0.000000
 14   -564.58061768   0.0000000004  0.000003  0.000003  0.000005  0.000000
                  ***Gradient check signals convergence***
              ***Rediagonalizing the Fockian in SOSCF/NRSCF***

               *****************************************************
               *                     SUCCESS                       *
               *           SCF CONVERGED AFTER  15 CYCLES          *
               *****************************************************

Setting up the final grid:

General Integration Accuracy     IntAcc      ...  4.670
Radial Grid Type                 RadialGrid  ... Gauss-Chebyshev
Angular Grid (max. acc.)         AngularGrid ... Lebedev-302
Angular grid pruning method      GridPruning ... 3 (G Style)
Weight generation scheme         WeightScheme... Becke
Basis function cutoff            BFCut       ...    1.0000e-11
Integration weight cutoff        WCut        ...    1.0000e-14
Grids for H and He will be reduced by one unit

# of grid points (after initial pruning)     ...  95484 (   0.0 sec)
# of grid points (after weights+screening)   ...  87228 (   0.1 sec)
nearest neighbour list constructed           ...    0.0 sec
Grid point re-assignment to atoms done       ...    0.0 sec
Grid point division into batches done        ...    0.4 sec
Reduced shell lists constructed in    0.6 sec

Total number of grid points                  ...    87228
Total number of batches                      ...     1372
Average number of points per batch           ...       63
Average number of grid points per atom       ...     4591
Average number of shells per batch           ...    57.17 (63.52%)
Average number of basis functions per batch  ...   117.70 (60.67%)
Average number of large shells per batch     ...    39.70 (69.45%)
Average number of large basis fcns per batch ...    83.06 (70.57%)
Maximum spatial batch extension              ...  10.46, 10.41, 18.12 au
Average spatial batch extension              ...   0.22,  0.23,  0.29 au

Final grid set up in    0.8 sec
Final integration                            ... done (   0.4 sec)
Change in XC energy                          ...     0.000194654
Integrated number of electrons               ...    82.000010472
Previous integrated no of electrons          ...    82.003779954
Old exchange energy                            =    -14.356620885 Eh
New exchange energy                            =    -14.356133415 Eh
Exchange energy change after final integration =      0.000487470 Eh
Total energy after final integration           =   -564.579935548 Eh
Final COS-X integration done in                =     3.040 sec

----------------
TOTAL SCF ENERGY
----------------

Total Energy       :         -564.57993555 Eh          -15363.00109 eV

Components:
Nuclear Repulsion  :          603.31198792 Eh           16416.95381 eV
Electronic Energy  :        -1167.89192346 Eh          -31779.95490 eV
One Electron Energy:        -1965.91519842 Eh          -53495.27220 eV
Two Electron Energy:          798.02327496 Eh           21715.31730 eV

Virial components:
Potential Energy   :        -1126.22207979 Eh          -30646.06081 eV
Kinetic Energy     :          561.64214424 Eh           15283.05972 eV
Virial Ratio       :            2.00523072


DFT components:
N(Alpha)           :       41.000005235813 electrons
N(Beta)            :       41.000005235813 electrons
N(Total)           :       82.000010471627 electrons
E(X)               :      -57.114134838144 Eh       
E(C)               :       -3.349215336041 Eh       
E(XC)              :      -60.463350174185 Eh       

---------------
SCF CONVERGENCE
---------------

  Last Energy change         ...    3.3720e-09  Tolerance :   1.0000e-08
  Last MAX-Density change    ...    8.0830e-14  Tolerance :   1.0000e-07
  Last RMS-Density change    ...    4.7878e-16  Tolerance :   5.0000e-09
  Last Orbital Gradient      ...    6.4464e-07  Tolerance :   1.0000e-05
  Last Orbital Rotation      ...    1.9887e-06  Tolerance :   1.0000e-05

             **** THE GBW FILE WAS UPDATED (AT-v/e/frag_25_c00001.gbw) ****
             **** DENSITY FILE WAS UPDATED (AT-v/e/frag_25_c00001.scfp.tmp) ****
             **** ENERGY FILE WAS UPDATED (AT-v/e/frag_25_c00001.en.tmp) ****
----------------
ORBITAL ENERGIES
----------------

  NO   OCC          E(Eh)            E(eV) 
   0   2.0000     -19.108894      -519.9794 
   1   2.0000     -19.099010      -519.7105 
   2   2.0000     -14.386761      -391.4837 
   3   2.0000     -14.349250      -390.4629 
   4   2.0000     -14.323834      -389.7713 
   5   2.0000     -14.293853      -388.9555 
   6   2.0000     -10.315920      -280.7105 
   7   2.0000     -10.292024      -280.0602 
   8   2.0000     -10.254344      -279.0349 
   9   2.0000     -10.253451      -279.0106 
  10   2.0000     -10.189895      -277.2811 
  11   2.0000      -1.062100       -28.9012 
  12   2.0000      -1.032339       -28.0914 
  13   2.0000      -0.966727       -26.3060 
  14   2.0000      -0.937667       -25.5152 
  15   2.0000      -0.917653       -24.9706 
  16   2.0000      -0.843944       -22.9649 
  17   2.0000      -0.788001       -21.4426 
  18   2.0000      -0.677690       -18.4409 
  19   2.0000      -0.652186       -17.7469 
  20   2.0000      -0.600114       -16.3299 
  21   2.0000      -0.583557       -15.8794 
  22   2.0000      -0.551557       -15.0086 
  23   2.0000      -0.538116       -14.6429 
  24   2.0000      -0.511223       -13.9111 
  25   2.0000      -0.474528       -12.9126 
  26   2.0000      -0.468660       -12.7529 
  27   2.0000      -0.448603       -12.2071 
  28   2.0000      -0.440101       -11.9758 
  29   2.0000      -0.426486       -11.6053 
  30   2.0000      -0.406195       -11.0531 
  31   2.0000      -0.402902       -10.9635 
  32   2.0000      -0.393868       -10.7177 
  33   2.0000      -0.365481        -9.9452 
  34   2.0000      -0.353853        -9.6288 
  35   2.0000      -0.287515        -7.8237 
  36   2.0000      -0.268299        -7.3008 
  37   2.0000      -0.262463        -7.1420 
  38   2.0000      -0.251408        -6.8412 
  39   2.0000      -0.238225        -6.4824 
  40   2.0000      -0.235210        -6.4004 
  41   0.0000      -0.026504        -0.7212 
  42   0.0000       0.023796         0.6475 
  43   0.0000       0.032760         0.8914 
  44   0.0000       0.041751         1.1361 
  45   0.0000       0.059821         1.6278 
  46   0.0000       0.095016         2.5855 
  47   0.0000       0.099575         2.7096 
  48   0.0000       0.124746         3.3945 
  49   0.0000       0.133665         3.6372 
  50   0.0000       0.136677         3.7192 
  51   0.0000       0.200205         5.4479 
  52   0.0000       0.204906         5.5758 
  53   0.0000       0.220748         6.0069 
  54   0.0000       0.256173         6.9708 
  55   0.0000       0.273354         7.4383 
  56   0.0000       0.279963         7.6182 
  57   0.0000       0.320588         8.7236 
  58   0.0000       0.331880         9.0309 
  59   0.0000       0.345614         9.4046 
  60   0.0000       0.354885         9.6569 
  61   0.0000       0.363035         9.8787 
  62   0.0000       0.411262        11.1910 
  63   0.0000       0.424805        11.5595 
  64   0.0000       0.453365        12.3367 
  65   0.0000       0.455530        12.3956 
  66   0.0000       0.471509        12.8304 
  67   0.0000       0.486362        13.2346 
  68   0.0000       0.487496        13.2654 
  69   0.0000       0.494259        13.4495 
  70   0.0000       0.505624        13.7587 
  71   0.0000       0.531051        14.4506 
  72   0.0000       0.548556        14.9270 
  73   0.0000       0.561869        15.2892 
  74   0.0000       0.567019        15.4294 
  75   0.0000       0.588989        16.0272 
  76   0.0000       0.595100        16.1935 
  77   0.0000       0.613888        16.7047 
  78   0.0000       0.629686        17.1346 
  79   0.0000       0.653961        17.7952 
  80   0.0000       0.671704        18.2780 
  81   0.0000       0.686008        18.6672 
  82   0.0000       0.695298        18.9200 
  83   0.0000       0.710927        19.3453 
  84   0.0000       0.738008        20.0822 
  85   0.0000       0.753480        20.5032 
  86   0.0000       0.764635        20.8068 
  87   0.0000       0.772725        21.0269 
  88   0.0000       0.793246        21.5853 
  89   0.0000       0.803910        21.8755 
  90   0.0000       0.805972        21.9316 
  91   0.0000       0.862688        23.4749 
  92   0.0000       0.881792        23.9948 
  93   0.0000       0.886223        24.1153 
  94   0.0000       0.895068        24.3560 
  95   0.0000       0.920669        25.0527 
  96   0.0000       0.934146        25.4194 
  97   0.0000       0.943540        25.6750 
  98   0.0000       0.959864        26.1192 
  99   0.0000       0.998106        27.1598 
 100   0.0000       1.021703        27.8020 
 101   0.0000       1.052053        28.6278 
 102   0.0000       1.062805        28.9204 
 103   0.0000       1.068752        29.0822 
 104   0.0000       1.077909        29.3314 
 105   0.0000       1.097179        29.8558 
 106   0.0000       1.098628        29.8952 
 107   0.0000       1.113369        30.2963 
 108   0.0000       1.125101        30.6155 
 109   0.0000       1.134421        30.8692 
 110   0.0000       1.145050        31.1584 
 111   0.0000       1.190301        32.3897 
 112   0.0000       1.198742        32.6194 
 113   0.0000       1.227329        33.3973 
 114   0.0000       1.263232        34.3743 
 115   0.0000       1.308878        35.6164 
 116   0.0000       1.311968        35.7005 
 117   0.0000       1.321280        35.9539 
 118   0.0000       1.334553        36.3150 
 119   0.0000       1.370160        37.2839 
 120   0.0000       1.408462        38.3262 
 121   0.0000       1.432095        38.9693 
 122   0.0000       1.475963        40.1630 
 123   0.0000       1.494566        40.6692 
 124   0.0000       1.496050        40.7096 
 125   0.0000       1.524271        41.4775 
 126   0.0000       1.542648        41.9776 
 127   0.0000       1.556579        42.3567 
 128   0.0000       1.567549        42.6552 
 129   0.0000       1.598306        43.4921 
 130   0.0000       1.621989        44.1366 
 131   0.0000       1.638511        44.5862 
 132   0.0000       1.642292        44.6890 
 133   0.0000       1.671794        45.4918 
 134   0.0000       1.678578        45.6764 
 135   0.0000       1.697655        46.1955 
 136   0.0000       1.713002        46.6132 
 137   0.0000       1.730323        47.0845 
 138   0.0000       1.735412        47.2229 
 139   0.0000       1.744950        47.4825 
 140   0.0000       1.773545        48.2606 
 141   0.0000       1.797419        48.9103 
 142   0.0000       1.800393        48.9912 
 143   0.0000       1.846121        50.2355 
 144   0.0000       1.874179        50.9990 
 145   0.0000       1.900063        51.7033 
 146   0.0000       1.941104        52.8201 
 147   0.0000       1.944759        52.9196 
 148   0.0000       1.949148        53.0390 
 149   0.0000       1.976288        53.7775 
 150   0.0000       2.038942        55.4824 
 151   0.0000       2.056001        55.9466 
 152   0.0000       2.083814        56.7035 
 153   0.0000       2.099995        57.1438 
 154   0.0000       2.127788        57.9001 
 155   0.0000       2.151040        58.5328 
 156   0.0000       2.158003        58.7222 
 157   0.0000       2.192077        59.6494 
 158   0.0000       2.238036        60.9001 
 159   0.0000       2.250303        61.2339 
 160   0.0000       2.272672        61.8425 
 161   0.0000       2.302708        62.6599 
 162   0.0000       2.332000        63.4570 
 163   0.0000       2.349649        63.9372 
 164   0.0000       2.362688        64.2920 
 165   0.0000       2.376836        64.6770 
 166   0.0000       2.452436        66.7342 
 167   0.0000       2.454485        66.7899 
 168   0.0000       2.484304        67.6013 
 169   0.0000       2.526432        68.7477 
 170   0.0000       2.559747        69.6543 
 171   0.0000       2.583539        70.3017 
 172   0.0000       2.614957        71.1566 
 173   0.0000       2.619222        71.2727 
 174   0.0000       2.649421        72.0944 
 175   0.0000       2.698218        73.4222 
 176   0.0000       2.711109        73.7730 
 177   0.0000       2.719261        73.9948 
 178   0.0000       2.777644        75.5835 
 179   0.0000       2.793212        76.0072 
 180   0.0000       2.794434        76.0404 
 181   0.0000       2.888450        78.5987 
 182   0.0000       2.906366        79.0862 
 183   0.0000       2.989221        81.3408 
 184   0.0000       3.034095        82.5619 
 185   0.0000       3.074969        83.6742 
 186   0.0000       3.133519        85.2674 
 187   0.0000       3.171493        86.3007 
 188   0.0000       3.315942        90.2314 
 189   0.0000       3.419993        93.0627 
 190   0.0000       3.461665        94.1967 
 191   0.0000       3.486635        94.8762 
 192   0.0000       3.519746        95.7772 
 193   0.0000       3.692541       100.4792 
-------
TIMINGS
-------

Total SCF time: 0 days 0 hours 0 min 31 sec 

Total time                  ....      31.949 sec
Sum of individual times     ....      31.844 sec  ( 99.7%)

Fock matrix formation       ....      29.938 sec  ( 93.7%)
  Split-RI-J                ....       4.805 sec  ( 16.0% of F)
  Chain of spheres X        ....      23.019 sec  ( 76.9% of F)
  COS-X 1 center corr.      ....       0.000 sec  (  0.0% of F)
  XC integration            ....       2.031 sec  (  6.8% of F)
    Basis function eval.    ....       0.740 sec  ( 36.4% of XC)
    Density eval.           ....       0.340 sec  ( 16.8% of XC)
    XC-Functional eval.     ....       0.082 sec  (  4.0% of XC)
    XC-Potential eval.      ....       0.659 sec  ( 32.4% of XC)
Diagonalization             ....       0.081 sec  (  0.3%)
Density matrix formation    ....       0.010 sec  (  0.0%)
Population analysis         ....       0.000 sec  (  0.0%)
Initial guess               ....       0.312 sec  (  1.0%)
Orbital Transformation      ....       0.000 sec  (  0.0%)
Orbital Orthonormalization  ....       0.000 sec  (  0.0%)
DIIS solution               ....       0.025 sec  (  0.1%)
SOSCF solution              ....       0.149 sec  (  0.5%)
Grid generation             ....       1.329 sec  (  4.2%)


-------------------------------------------------------------------------------
                          DFT DISPERSION CORRECTION                            
                                                                               
                              DFTD3 V3.1  Rev 1                                
                          USING Becke-Johnson damping                          
-------------------------------------------------------------------------------
The B3LYP functional is recognized
Active option DFTDOPT                   ...         4   

molecular C6(AA) [au] = 3898.227148 


            DFT-D V3
 parameters
 s6 scaling factor         :     1.0000 
 a1 scaling factor         :     0.3981 
 s8 scaling factor         :     1.9889 
 a2 scaling factor         :     4.4211 
 ad hoc parameters k1-k3   :    16.0000     1.3333    -4.0000 

 Edisp/kcal,au: -19.469799033733  -0.031027096421 
 E6   /kcal   :  -9.394741326 
 E8   /kcal   : -10.075057707 
 % E8         :  51.747106840 

-------------------------   ----------------
Dispersion correction           -0.031027096
-------------------------   ----------------


-------------------------   --------------------
FINAL SINGLE POINT ENERGY      -564.610962644244
-------------------------   --------------------



           ************************************************************
           *        Program running with 6 parallel MPI-processes     *
           *              working on a common directory               *
           ************************************************************
------------------------------------------------------------------------------
                         ORCA SCF GRADIENT CALCULATION
------------------------------------------------------------------------------

Gradient of the Kohn-Sham DFT energy:
Kohn-Sham wavefunction type      ... RKS
Hartree-Fock exchange scaling    ...    0.200
Number of operators              ...    1
Number of atoms                  ...   19
Basis set dimensions             ...  194
Integral neglect threshold       ... 2.5e-11
Integral primitive cutoff        ... 2.5e-12

Nuclear repulsion gradient       ... done
One Electron Gradient            ... done
Pre-screening matrix             ... done
RI-J gradient                    ... done
COSX-gradient                    ... done
Exchange-correlation gradient    ... done
Dispersion correction            ... done

------------------
CARTESIAN GRADIENT
------------------

   1   C   :   -0.008259233    0.000689683   -0.005791856
   2   N   :    0.005441205    0.009298807    0.001288785
   3   N   :   -0.011750478   -0.011241808    0.000024765
   4   N   :    0.017894334   -0.005794231    0.000214120
   5   C   :   -0.017916881   -0.024873977    0.001561163
   6   O   :    0.003530332    0.007203174    0.000019272
   7   N   :    0.019747558    0.003708015    0.000627974
   8   C   :    0.027814007    0.012050880   -0.001026407
   9   O   :   -0.010653056    0.006470538   -0.000273233
  10   C   :   -0.019314205    0.007696872   -0.000479881
  11   C   :    0.008434701   -0.004602907    0.000310090
  12   H   :   -0.001182055   -0.000280896   -0.000196928
  13   H   :   -0.006637932    0.000319567    0.001948248
  14   H   :    0.005940655    0.000140330    0.001473847
  15   H   :    0.006997387    0.001873830    0.003351208
  16   H   :   -0.001621177   -0.000198572   -0.000006666
  17   H   :   -0.026896030   -0.001962325   -0.000827208
  18   H   :    0.002073180    0.003597947   -0.000159367
  19   H   :    0.004897294   -0.002688965    0.000241310

Difference to translation invariance:
           :   -0.0014603962    0.0014059625    0.0022992376

Norm of the cartesian gradient     ...    0.0691299040
RMS gradient                       ...    0.0091564795
MAX gradient                       ...    0.0278140070

-------
TIMINGS
-------

Total SCF gradient time            ...        6.646 sec

One electron gradient       ....       0.106 sec  (  1.6%)
Prescreening matrices       ....       0.162 sec  (  2.4%)
RI-J Coulomb gradient       ....       1.024 sec  ( 15.4%)
COSX gradient               ....       3.232 sec  ( 48.6%)
XC gradient                 ....       1.468 sec  ( 22.1%)
------------------------------------------------------------------------------
                         ORCA GEOMETRY RELAXATION STEP
------------------------------------------------------------------------------

Reading the OPT-File                    .... done
Getting information on internals        .... done
Copying old internal coords+grads       .... done
Making the new internal coordinates     .... (new redundants).... done
Validating the new internal coordinates .... (new redundants).... done
Calculating the B-matrix                .... done
Calculating the G,G- and P matrices     .... done
Transforming gradient to internals      .... done
Projecting the internal gradient        .... done
Number of atoms                         ....  19
Number of internal coordinates          ....  91
Current Energy                          ....  -564.610962644 Eh
Current gradient norm                   ....     0.069129904 Eh/bohr
Maximum allowed component of the step   ....  0.300
Current trust radius                    ....  0.300
Evaluating the initial hessian          ....  (Almloef) done
Projecting the Hessian                  .... done
Forming the augmented Hessian           .... done
Diagonalizing the augmented Hessian     .... done
Last element of RFO vector              ....  0.975481712
Lowest eigenvalues of augmented Hessian:
 -0.007940001  0.015695294  0.024758381  0.028085897  0.028961364
Length of the computed step             ....  0.225612132
The final length of the internal step   ....  0.225612132
Converting the step to cartesian space:
 Initial RMS(Int)=    0.0236505777
Transforming coordinates:
 Iter   0:  RMS(Cart)=    0.0540855181 RMS(Int)=    0.9316099853
 Iter   1:  RMS(Cart)=    0.0002979993 RMS(Int)=    0.0002686947
 Iter   2:  RMS(Cart)=    0.0000059271 RMS(Int)=    0.0000053920
 Iter   3:  RMS(Cart)=    0.0000002314 RMS(Int)=    0.0000001793
 Iter   4:  RMS(Cart)=    0.0000000073 RMS(Int)=    0.0000000057
done
Storing new coordinates                 .... done

                                .--------------------.
          ----------------------|Geometry convergence|-------------------------
          Item                value                   Tolerance       Converged
          ---------------------------------------------------------------------
          RMS gradient        0.0061015543            0.0020000000      NO
          MAX gradient        0.0320893290            0.0030000000      NO
          RMS step            0.0236505777            0.0200000000      NO
          MAX step            0.1265141581            0.0300000000      NO
          ........................................................
          Max(Bonds)      0.0669      Max(Angles)    1.21
          Max(Dihed)        3.27      Max(Improp)    0.00
          ---------------------------------------------------------------------

The optimization has not yet converged - more geometry cycles are needed


    ---------------------------------------------------------------------------
                         Redundant Internal Coordinates
                            (Angstroem and degrees)

        Definition                    Value    dE/dq     Step     New-Value
    ----------------------------------------------------------------------------
     1. B(N   1,C   0)                1.3484 -0.011992  0.0095    1.3579   
     2. B(N   2,C   0)                1.2854 -0.007852  0.0051    1.2905   
     3. B(C   4,N   3)                1.3719 -0.017947  0.0159    1.3878   
     4. B(O   5,C   4)                1.2268  0.007971 -0.0041    1.2227   
     5. B(N   6,C   4)                1.3670 -0.015202  0.0130    1.3799   
     6. B(C   7,N   6)                1.3664 -0.016590  0.0142    1.3806   
     7. B(O   8,C   7)                1.2284 -0.013462  0.0070    1.2353   
     8. B(C   9,C   7)                1.4777  0.005037 -0.0060    1.4717   
     9. B(C  10,C   9)                1.3347 -0.019963  0.0137    1.3484   
    10. B(C  10,N   3)                1.3657 -0.008198  0.0072    1.3729   
    11. B(H  11,C   0)                1.1036 -0.001134  0.0017    1.1053   
    12. B(H  12,N   1)                1.0118 -0.002317  0.0028    1.0146   
    13. B(H  13,N   1)                1.0256 -0.009537  0.0117    1.0373   
    14. B(H  13,O   8)                1.8031 -0.003746  0.0579    1.8610   
    15. B(H  14,N   2)                1.0303  0.006294 -0.0081    1.0222   
    16. B(H  15,N   3)                1.0134  0.000504 -0.0006    1.0128   
    17. B(H  16,N   2)                1.6975 -0.005153  0.0669    1.7644   
    18. B(H  16,N   6)                1.0230 -0.032089  0.0407    1.0637   
    19. B(H  17,C   9)                1.0810 -0.004115  0.0057    1.0868   
    20. B(H  18,C  10)                1.0850 -0.005131  0.0072    1.0923   
    21. A(N   1,C   0,N   2)          123.22  0.000935   -0.24    122.98   
    22. A(N   1,C   0,H  11)          114.19 -0.000877    0.18    114.37   
    23. A(N   2,C   0,H  11)          122.59 -0.000042    0.04    122.63   
    24. A(C   0,N   1,H  12)          117.75  0.004739   -0.59    117.16   
    25. A(H  12,N   1,H  13)          112.24 -0.003153    1.21    113.46   
    26. A(C   0,N   1,H  13)          114.71 -0.003338    0.59    115.30   
    27. A(H  14,N   2,H  16)          125.34  0.002163   -0.28    125.06   
    28. A(C   0,N   2,H  16)          125.77  0.003891   -0.77    124.99   
    29. A(C   0,N   2,H  14)          108.79 -0.006109    1.11    109.90   
    30. A(C  10,N   3,H  15)          120.87 -0.002494    0.35    121.22   
    31. A(C   4,N   3,H  15)          115.38  0.000396   -0.10    115.27   
    32. A(C   4,N   3,C  10)          123.75  0.002098   -0.25    123.51   
    33. A(N   3,C   4,N   6)          115.34  0.003451   -0.44    114.91   
    34. A(N   3,C   4,O   5)          121.16 -0.001880    0.24    121.40   
    35. A(O   5,C   4,N   6)          123.50 -0.001571    0.20    123.69   
    36. A(C   4,N   6,C   7)          125.39 -0.002688    0.34    125.73   
    37. A(C   7,N   6,H  16)          117.46 -0.000698    0.12    117.57   
    38. A(C   4,N   6,H  16)          117.16  0.003387   -0.46    116.70   
    39. A(N   6,C   7,C   9)          115.92  0.001070   -0.20    115.73   
    40. A(N   6,C   7,O   8)          123.70  0.007160   -0.91    122.78   
    41. A(O   8,C   7,C   9)          120.38 -0.008231    1.11    121.49   
    42. A(C   7,O   8,H  13)          123.81 -0.004551    0.67    124.48   
    43. A(C  10,C   9,H  17)          123.51  0.001956   -0.25    123.26   
    44. A(C   7,C   9,H  17)          117.74  0.001363   -0.18    117.56   
    45. A(C   7,C   9,C  10)          118.75 -0.003320    0.43    119.18   
    46. A(C   9,C  10,H  18)          122.37 -0.002248    0.34    122.71   
    47. A(N   3,C  10,H  18)          116.79  0.002859   -0.46    116.34   
    48. A(N   3,C  10,C   9)          120.84 -0.000611    0.11    120.95   
    49. A(N   1,H  13,O   8)          174.28 -0.001933    0.20    174.48   
    50. A(N   2,H  16,N   6)          173.73 -0.001817    0.22    173.95   
    51. D(H  12,N   1,C   0,H  11)     31.69  0.002605   -1.34     30.35   
    52. D(H  12,N   1,C   0,N   2)   -148.93  0.004310   -3.27   -152.19   
    53. D(H  13,N   1,C   0,N   2)    -13.45  0.000712   -1.26    -14.71   
    54. D(H  13,N   1,C   0,H  11)    167.17 -0.000994    0.67    167.84   
    55. D(H  14,N   2,C   0,H  11)      0.42  0.000013    0.48      0.90   
    56. D(H  16,N   2,C   0,N   1)      4.70 -0.000924    1.69      6.39   
    57. D(H  14,N   2,C   0,N   1)   -178.91 -0.001829    2.56   -176.34   
    58. D(H  16,N   2,C   0,H  11)   -175.97  0.000918   -0.40   -176.36   
    59. D(N   6,C   4,N   3,H  15)   -179.92  0.000113   -0.12   -180.03   
    60. D(N   6,C   4,N   3,C  10)     -0.06  0.000218   -0.28     -0.35   
    61. D(O   5,C   4,N   3,H  15)      0.10  0.000069   -0.11     -0.00   
    62. D(O   5,C   4,N   3,C  10)    179.95  0.000175   -0.27    179.68   
    63. D(H  16,N   6,C   4,N   3)    179.75 -0.000032    0.12    179.87   
    64. D(C   7,N   6,C   4,O   5)   -179.93 -0.000131    0.08   -179.85   
    65. D(C   7,N   6,C   4,N   3)      0.09 -0.000175    0.09      0.18   
    66. D(H  16,N   6,C   4,O   5)     -0.27  0.000012    0.10     -0.16   
    67. D(C   9,C   7,N   6,H  16)   -179.75 -0.000146    0.15   -179.60   
    68. D(C   9,C   7,N   6,C   4)     -0.09  0.000009    0.17      0.08   
    69. D(O   8,C   7,N   6,H  16)      0.33  0.000125   -0.01      0.32   
    70. D(O   8,C   7,N   6,C   4)    179.99  0.000281    0.02    180.01   
    71. D(H  13,O   8,C   7,C   9)    170.57 -0.000005   -0.00    170.56   
    72. D(H  13,O   8,C   7,N   6)     -9.52 -0.000279    0.16     -9.36   
    73. D(H  17,C   9,C   7,O   8)     -0.09 -0.000090   -0.10     -0.19   
    74. D(H  17,C   9,C   7,N   6)    179.99  0.000158   -0.25    179.74   
    75. D(C  10,C   9,C   7,O   8)    179.98 -0.000115   -0.12    179.86   
    76. D(C  10,C   9,C   7,N   6)      0.06  0.000134   -0.27     -0.21   
    77. D(H  18,C  10,N   3,H  15)     -0.09 -0.000057    0.08     -0.01   
    78. D(H  18,C  10,N   3,C   4)   -179.94 -0.000172    0.26   -179.68   
    79. D(C   9,C  10,N   3,H  15)    179.89  0.000027    0.02    179.91   
    80. D(N   3,C  10,C   9,C   7)     -0.04 -0.000093    0.10      0.06   
    81. D(C   9,C  10,N   3,C   4)      0.04 -0.000089    0.19      0.24   
    82. D(H  18,C  10,C   9,H  17)      0.01 -0.000029    0.01      0.03   
    83. D(H  18,C  10,C   9,C   7)    179.94 -0.000004    0.03    179.97   
    84. D(N   3,C  10,C   9,H  17)   -179.97 -0.000118    0.08   -179.88   
    85. D(N   1,H  13,O   8,C   7)     29.12 -0.000233    1.16     30.28   
    86. D(O   8,H  13,N   1,H  12)    129.42  0.000025    0.60    130.02   
    87. D(O   8,H  13,N   1,C   0)     -8.47 -0.000088   -0.52     -9.00   
    88. D(N   2,H  16,N   6,C   7)    -20.66  0.001177   -0.05    -20.71   
    89. D(N   2,H  16,N   6,C   4)    159.65  0.001054   -0.07    159.58   
    90. D(N   6,H  16,N   2,H  14)   -147.49  0.001853   -1.95   -149.44   
    91. D(N   6,H  16,N   2,C   0)     28.32  0.000538   -0.89     27.43   
    ----------------------------------------------------------------------------

         *************************************************************
         *                GEOMETRY OPTIMIZATION CYCLE   2            *
         *************************************************************
---------------------------------
CARTESIAN COORDINATES (ANGSTROEM)
---------------------------------
  C      1.648440   -0.741212    0.050934
  N      1.069161   -1.948321   -0.175554
  N      0.980666    0.362448    0.087312
  N     -3.880799    1.585317   -0.055995
  C     -2.495415    1.667254   -0.057742
  O     -1.921110    2.744842   -0.120174
  N     -1.841418    0.454374    0.016104
  C     -2.446220   -0.784747    0.085124
  O     -1.805632   -1.839021    0.149856
  C     -3.917851   -0.778721    0.075422
  C     -4.569889    0.399471    0.006245
  H      2.747978   -0.776123    0.158016
  H      1.526154   -2.762830    0.220862
  H      0.036202   -1.968599   -0.082876
  H      1.619022    1.151332    0.210038
  H     -4.366450    2.472432   -0.109484
  H     -0.778086    0.483824    0.014541
  H     -4.425013   -1.738659    0.124235
  H     -5.659739    0.471140   -0.005165

----------------------------
CARTESIAN COORDINATES (A.U.)
----------------------------
  NO LB      ZA    FRAG     MASS         X           Y           Z
   0 C     6.0000    0    12.011    3.115100   -1.400688    0.096252
   1 N     7.0000    0    14.007    2.020422   -3.681793   -0.331749
   2 N     7.0000    0    14.007    1.853190    0.684928    0.164996
   3 N     7.0000    0    14.007   -7.333648    2.995814   -0.105815
   4 C     6.0000    0    12.011   -4.715651    3.150653   -0.109117
   5 O     8.0000    0    15.999   -3.630372    5.186999   -0.227096
   6 N     7.0000    0    14.007   -3.479776    0.858643    0.030433
   7 C     6.0000    0    12.011   -4.622685   -1.482958    0.160861
   8 O     8.0000    0    15.999   -3.412151   -3.475247    0.283186
   9 C     6.0000    0    12.011   -7.403665   -1.471569    0.142526
  10 C     6.0000    0    12.011   -8.635838    0.754890    0.011801
  11 H     1.0000    0     1.008    5.192926   -1.466659    0.298607
  12 H     1.0000    0     1.008    2.884012   -5.220992    0.417369
  13 H     1.0000    0     1.008    0.068411   -3.720114   -0.156613
  14 H     1.0000    0     1.008    3.059508    2.175702    0.396915
  15 H     1.0000    0     1.008   -8.251395    4.672219   -0.206895
  16 H     1.0000    0     1.008   -1.470369    0.914295    0.027479
  17 H     1.0000    0     1.008   -8.362063   -3.285590    0.234770
  18 H     1.0000    0     1.008  -10.695358    0.890326   -0.009760

--------------------------------
INTERNAL COORDINATES (ANGSTROEM)
--------------------------------
 C      0   0   0     0.000000000000     0.00000000     0.00000000
 N      1   0   0     1.357929420218     0.00000000     0.00000000
 N      1   2   0     1.290469540402   122.97046984     0.00000000
 N      3   1   2     5.014956444950   135.18349816     6.45116599
 C      4   3   1     1.387806482459    17.58518920   189.35900813
 O      5   4   3     1.222668960078   121.39891856   182.27048133
 N      5   4   3     1.379942564367   114.90678234     2.23993854
 C      7   5   4     1.380569336101   125.72798677     0.18054794
 O      8   7   5     1.235328150757   122.78217097   180.00981811
 C      8   7   5     1.471675294298   115.72569304     0.08302729
 C     10   8   7     1.348359852416   119.17511999   359.79384561
 H      1   2   3     1.105291392300   114.35889674   182.54659866
 H      2   1   3     1.014600288113   117.14963741   207.80733241
 H      2   1   3     1.037306896340   115.29495487   345.28193697
 H      3   1   2     1.022202539099   109.89281233   183.65497946
 H      4   3   1     1.012763999014   132.84004028   186.55462629
 H      7   5   4     1.063740984650   116.70111987   179.86654736
 H     10   8   7     1.086774292756   117.56410813   179.73816918
 H     11  10   8     1.092264367329   122.70957615   179.96795250

---------------------------
INTERNAL COORDINATES (A.U.)
---------------------------
 C      0   0   0     0.000000000000     0.00000000     0.00000000
 N      1   0   0     2.566114713406     0.00000000     0.00000000
 N      1   2   0     2.438634015526   122.97046984     0.00000000
 N      3   1   2     9.476894254499   135.18349816     6.45116599
 C      4   3   1     2.622574178728    17.58518920   189.35900813
 O      5   4   3     2.310509486994   121.39891856   182.27048133
 N      5   4   3     2.607713527194   114.90678234     2.23993854
 C      7   5   4     2.608897954121   125.72798677     0.18054794
 O      8   7   5     2.334431890453   122.78217097   180.00981811
 C      8   7   5     2.781063264281   115.72569304     0.08302729
 C     10   8   7     2.548030851040   119.17511999   359.79384561
 H      1   2   3     2.088698029627   114.35889674   182.54659866
 H      2   1   3     1.917316679931   117.14963741   207.80733241
 H      2   1   3     1.960225950911   115.29495487   345.28193697
 H      3   1   2     1.931682852296   109.89281233   183.65497946
 H      4   3   1     1.913846596431   132.84004028   186.55462629
 H      7   5   4     2.010179138416   116.70111987   179.86654736
 H     10   8   7     2.053705782695   117.56410813   179.73816918
 H     11  10   8     2.064080520092   122.70957615   179.96795250



           ************************************************************
           *        Program running with 6 parallel MPI-processes     *
           *              working on a common directory               *
           ************************************************************
 One Electron integrals                  ... done
 Pre-screening matrix                    ... done


           ************************************************************
           *        Program running with 6 parallel MPI-processes     *
           *              working on a common directory               *
           ************************************************************

Diagonalization of the overlap matrix:
Smallest eigenvalue                        ... 1.381e-03
Time for diagonalization                   ...    0.010 sec
Threshold for overlap eigenvalues          ... 1.000e-08
Number of eigenvalues below threshold      ... 0
Time for construction of square roots      ...    0.004 sec
Total time needed                          ...    0.015 sec

-------------------
DFT GRID GENERATION
-------------------

General Integration Accuracy     IntAcc      ...  4.340
Radial Grid Type                 RadialGrid  ... Gauss-Chebyshev
Angular Grid (max. acc.)         AngularGrid ... Lebedev-110
Angular grid pruning method      GridPruning ... 3 (G Style)
Weight generation scheme         WeightScheme... Becke
Basis function cutoff            BFCut       ...    1.0000e-11
Integration weight cutoff        WCut        ...    1.0000e-14
Grids for H and He will be reduced by one unit

# of grid points (after initial pruning)     ...  24872 (   0.0 sec)
# of grid points (after weights+screening)   ...  23062 (   0.0 sec)
nearest neighbour list constructed           ...    0.0 sec
Grid point re-assignment to atoms done       ...    0.0 sec
Grid point division into batches done        ...    0.0 sec
Reduced shell lists constructed in    0.1 sec

Total number of grid points                  ...    23062
Total number of batches                      ...      367
Average number of points per batch           ...       62
Average number of grid points per atom       ...     1214
Average number of shells per batch           ...    59.97 (66.63%)
Average number of basis functions per batch  ...   124.06 (63.95%)
Average number of large shells per batch     ...    42.54 (70.94%)
Average number of large basis fcns per batch ...    88.92 (71.67%)
Maximum spatial batch extension              ...   9.73,  8.87, 18.14 au
Average spatial batch extension              ...   0.34,  0.34,  0.55 au

Time for grid setup =    0.137 sec

--------------------
COSX GRID GENERATION
--------------------

General Integration Accuracy     IntAcc      ...  3.340
Radial Grid Type                 RadialGrid  ... Gauss-Chebyshev
Angular Grid (max. acc.)         AngularGrid ... Lebedev-50
Angular grid pruning method      GridPruning ... 3 (G Style)
Weight generation scheme         WeightScheme... Becke
Basis function cutoff            BFCut       ...    1.0000e-11
Integration weight cutoff        WCut        ...    1.0000e-14
Grids for H and He will be reduced by one unit

# of grid points (after initial pruning)     ...   8884 (   0.0 sec)
# of grid points (after weights+screening)   ...   8332 (   0.0 sec)
nearest neighbour list constructed           ...    0.0 sec
Grid point re-assignment to atoms done       ...    0.0 sec
Grid point division into batches done        ...    0.0 sec
Reduced shell lists constructed in    0.0 sec

Total number of grid points                  ...     8332
Total number of batches                      ...      139
Average number of points per batch           ...       59
Average number of grid points per atom       ...      439
Average number of shells per batch           ...    60.56 (67.29%)
Average number of basis functions per batch  ...   125.84 (64.87%)
Average number of large shells per batch     ...    43.52 (71.86%)
Average number of large basis fcns per batch ...    90.88 (72.22%)
Maximum spatial batch extension              ...   5.32,  8.27, 22.28 au
Average spatial batch extension              ...   0.40,  0.46,  0.91 au

Overlap Fitting                  UseSFitting ... on
Constructing numerical overlap ... done (      0.0 sec)
Inverting numerical overlap    ... done (      0.0 sec)
Obtaining analytic overlap     ... done (      0.0 sec)
Final contraction and storage  ... done (      0.0 sec)


General Integration Accuracy     IntAcc      ...  3.670
Radial Grid Type                 RadialGrid  ... Gauss-Chebyshev
Angular Grid (max. acc.)         AngularGrid ... Lebedev-50
Angular grid pruning method      GridPruning ... 3 (G Style)
Weight generation scheme         WeightScheme... Becke
Basis function cutoff            BFCut       ...    1.0000e-11
Integration weight cutoff        WCut        ...    1.0000e-14
Grids for H and He will be reduced by one unit

# of grid points (after initial pruning)     ...  11302 (   0.0 sec)
# of grid points (after weights+screening)   ...  10562 (   0.0 sec)
nearest neighbour list constructed           ...    0.0 sec
Grid point re-assignment to atoms done       ...    0.0 sec
Grid point division into batches done        ...    0.0 sec
Reduced shell lists constructed in    0.0 sec

Total number of grid points                  ...    10562
Total number of batches                      ...      174
Average number of points per batch           ...       60
Average number of grid points per atom       ...      556
Average number of shells per batch           ...    60.43 (67.15%)
Average number of basis functions per batch  ...   125.63 (64.76%)
Average number of large shells per batch     ...    42.43 (70.22%)
Average number of large basis fcns per batch ...    88.50 (70.44%)
[...]

Total number of grid points                  ...    19882
Total number of batches                      ...      319
Average number of points per batch           ...       62
Average number of grid points per atom       ...     1046
Average number of shells per batch           ...    59.93 (66.59%)
Average number of basis functions per batch  ...   124.29 (64.07%)
Average number of large shells per batch     ...    42.64 (71.15%)
Average number of large basis fcns per batch ...    89.04 (71.64%)
Maximum spatial batch extension              ...   9.40,  7.34, 18.06 au
Average spatial batch extension              ...   0.34,  0.34,  0.58 au

Overlap Fitting                  UseSFitting ... on
Constructing numerical overlap ... done (      0.0 sec)
Inverting numerical overlap    ... done (      0.0 sec)
Obtaining analytic overlap     ... done (      0.0 sec)
Final contraction and storage  ... done (      0.0 sec)

Time for X-Grid setup             =    0.407 sec
--------------
SCF ITERATIONS
--------------
ITER       Energy         Delta-E        Max-DP      RMS-DP      [F,P]     Damp
               ***  Starting incremental Fock matrix formation  ***
                      *** Initiating the SOSCF procedure ***
                      *** Re-Reading the Fockian *** 
                      *** Removing any level shift *** 
ITER      Energy       Delta-E        Grad      Rot      Max-DP    RMS-DP
  0   -564.58596674 -564.5859667407  0.001824  0.001824  0.003498  0.000097
               *** Restarting incremental Fock matrix formation ***
  1   -564.58612347  -0.0001567262  0.000708  0.001465  0.001376  0.000039
  2   -564.58613884  -0.0000153768  0.000139  0.000572  0.000706  0.000016
  3   -564.58613803   0.0000008094  0.000320  0.000386  0.000425  0.000010
  4   -564.58613964  -0.0000016099  0.000038  0.000103  0.000173  0.000004
  5   -564.58613956   0.0000000885  0.000052  0.000071  0.000096  0.000003
  6   -564.58613968  -0.0000001247  0.000010  0.000033  0.000066  0.000001
  7   -564.58613968   0.0000000017  0.000019  0.000023  0.000043  0.000001
  8   -564.58613969  -0.0000000066  0.000003  0.000007  0.000010  0.000000
  9   -564.58613969  -0.0000000056  0.000004  0.000004  0.000006  0.000000
                  ***Gradient check signals convergence***
              ***Rediagonalizing the Fockian in SOSCF/NRSCF***

               *****************************************************
               *                     SUCCESS                       *
               *           SCF CONVERGED AFTER  10 CYCLES          *
               *****************************************************

Setting up the final grid:

General Integration Accuracy     IntAcc      ...  4.670
Radial Grid Type                 RadialGrid  ... Gauss-Chebyshev
Angular Grid (max. acc.)         AngularGrid ... Lebedev-302
Angular grid pruning method      GridPruning ... 3 (G Style)
Weight generation scheme         WeightScheme... Becke
Basis function cutoff            BFCut       ...    1.0000e-11
Integration weight cutoff        WCut        ...    1.0000e-14
Grids for H and He will be reduced by one unit

# of grid points (after initial pruning)     ...  95484 (   0.0 sec)
# of grid points (after weights+screening)   ...  87327 (   0.1 sec)
nearest neighbour list constructed           ...    0.0 sec
Grid point re-assignment to atoms done       ...    0.0 sec
Grid point division into batches done        ...    0.4 sec
Reduced shell lists constructed in    0.6 sec

Total number of grid points                  ...    87327
Total number of batches                      ...     1373
Average number of points per batch           ...       63
Average number of grid points per atom       ...     4596
Average number of shells per batch           ...    56.63 (62.92%)
Average number of basis functions per batch  ...   116.55 (60.08%)
Average number of large shells per batch     ...    39.31 (69.42%)
Average number of large basis fcns per batch ...    82.20 (70.53%)
Maximum spatial batch extension              ...   9.83,  9.87, 17.91 au
Average spatial batch extension              ...   0.22,  0.23,  0.30 au

Final grid set up in    0.8 sec
Final integration                            ... done (   0.4 sec)
Change in XC energy                          ...     0.000064640
Integrated number of electrons               ...    81.999955465
Previous integrated no of electrons          ...    82.002764403
Old exchange energy                            =    -14.338385100 Eh
New exchange energy                            =    -14.338013213 Eh
Exchange energy change after final integration =      0.000371887 Eh
Total energy after final integration           =   -564.585703156 Eh
Final COS-X integration done in                =     3.125 sec

----------------
TOTAL SCF ENERGY
----------------

Total Energy       :         -564.58570316 Eh          -15363.15803 eV

Components:
Nuclear Repulsion  :          597.27563522 Eh           16252.69631 eV
Electronic Energy  :        -1161.86133838 Eh          -31615.85434 eV
One Electron Energy:        -1954.02227870 Eh          -53171.64940 eV
Two Electron Energy:          792.16094032 Eh           21555.79506 eV

Virial components:
Potential Energy   :        -1125.86537411 Eh          -30636.35435 eV
Kinetic Energy     :          561.27967095 Eh           15273.19632 eV
Virial Ratio       :            2.00589017


DFT components:
N(Alpha)           :       40.999977732576 electrons
N(Beta)            :       40.999977732576 electrons
N(Total)           :       81.999955465151 electrons
E(X)               :      -57.052132720081 Eh       
E(C)               :       -3.344315209030 Eh       
E(XC)              :      -60.396447929112 Eh       

---------------
SCF CONVERGENCE
---------------

  Last Energy change         ...    8.0989e-09  Tolerance :   1.0000e-08
  Last MAX-Density change    ...    1.2970e-13  Tolerance :   1.0000e-07
  Last RMS-Density change    ...    6.9839e-16  Tolerance :   5.0000e-09
  Last Orbital Gradient      ...    6.5131e-07  Tolerance :   1.0000e-05
  Last Orbital Rotation      ...    1.9640e-06  Tolerance :   1.0000e-05

             **** THE GBW FILE WAS UPDATED (AT-v/e/frag_25_c00001.gbw) ****
             **** DENSITY FILE WAS UPDATED (AT-v/e/frag_25_c00001.scfp.tmp) ****
             **** ENERGY FILE WAS UPDATED (AT-v/e/frag_25_c00001.en.tmp) ****
----------------
ORBITAL ENERGIES
----------------

  NO   OCC          E(Eh)            E(eV) 
   0   2.0000     -19.107885      -519.9520 
   1   2.0000     -19.104158      -519.8506 
   2   2.0000     -14.386871      -391.4867 
   3   2.0000     -14.348644      -390.4465 
   4   2.0000     -14.328203      -389.8902 
   5   2.0000     -14.293713      -388.9517 
   6   2.0000     -10.318029      -280.7679 
   7   2.0000     -10.291557      -280.0475 
   8   2.0000     -10.259185      -279.1666 
   9   2.0000     -10.255506      -279.0665 
  10   2.0000     -10.192102      -277.3412 
  11   2.0000      -1.058465       -28.8023 
  12   2.0000      -1.027890       -27.9703 
  13   2.0000      -0.964739       -26.2519 
  14   2.0000      -0.933735       -25.4082 
  15   2.0000      -0.904283       -24.6068 
  16   2.0000      -0.841833       -22.9074 
  17   2.0000      -0.784821       -21.3561 
  18   2.0000      -0.671655       -18.2767 
  19   2.0000      -0.644888       -17.5483 
  20   2.0000      -0.599475       -16.3125 
  21   2.0000      -0.578232       -15.7345 
  22   2.0000      -0.547143       -14.8885 
  23   2.0000      -0.538051       -14.6411 
  24   2.0000      -0.500057       -13.6072 
  25   2.0000      -0.472032       -12.8446 
  26   2.0000      -0.461695       -12.5634 
  27   2.0000      -0.450246       -12.2518 
  28   2.0000      -0.439498       -11.9594 
  29   2.0000      -0.430829       -11.7235 
  30   2.0000      -0.406153       -11.0520 
  31   2.0000      -0.403867       -10.9898 
  32   2.0000      -0.389681       -10.6038 
  33   2.0000      -0.364309        -9.9134 
  34   2.0000      -0.353795        -9.6273 
  35   2.0000      -0.286579        -7.7982 
  36   2.0000      -0.265001        -7.2110 
  37   2.0000      -0.263972        -7.1830 
  38   2.0000      -0.251918        -6.8550 
  39   2.0000      -0.237597        -6.4653 
  40   2.0000      -0.234060        -6.3691 
  41   0.0000      -0.030973        -0.8428 
  42   0.0000       0.025052         0.6817 
  43   0.0000       0.033044         0.8992 
  44   0.0000       0.041376         1.1259 
  45   0.0000       0.058906         1.6029 
  46   0.0000       0.094105         2.5607 
  47   0.0000       0.099647         2.7115 
  48   0.0000       0.122123         3.3231 
  49   0.0000       0.131247         3.5714 
  50   0.0000       0.134007         3.6465 
  51   0.0000       0.194206         5.2846 
  52   0.0000       0.204306         5.5594 
  53   0.0000       0.210390         5.7250 
  54   0.0000       0.243845         6.6354 
  55   0.0000       0.269065         7.3216 
  56   0.0000       0.279358         7.6017 
  57   0.0000       0.315817         8.5938 
  58   0.0000       0.323964         8.8155 
  59   0.0000       0.341777         9.3002 
  60   0.0000       0.355527         9.6744 
  61   0.0000       0.357107         9.7174 
  62   0.0000       0.407582        11.0909 
  63   0.0000       0.428288        11.6543 
  64   0.0000       0.444219        12.0878 
  65   0.0000       0.456563        12.4237 
  66   0.0000       0.471115        12.8197 
  67   0.0000       0.479664        13.0523 
  68   0.0000       0.484639        13.1877 
  69   0.0000       0.488306        13.2875 
  70   0.0000       0.508069        13.8253 
  71   0.0000       0.531272        14.4566 
  72   0.0000       0.535097        14.5607 
  73   0.0000       0.550092        14.9688 
  74   0.0000       0.563953        15.3459 
  75   0.0000       0.588322        16.0090 
  76   0.0000       0.596347        16.2274 
  77   0.0000       0.613287        16.6884 
  78   0.0000       0.626717        17.0538 
  79   0.0000       0.652691        17.7606 
  80   0.0000       0.665534        18.1101 
  81   0.0000       0.686322        18.6758 
  82   0.0000       0.694717        18.9042 
  83   0.0000       0.707953        19.2644 
  84   0.0000       0.741626        20.1807 
  85   0.0000       0.751393        20.4464 
  86   0.0000       0.764442        20.8015 
  87   0.0000       0.773489        21.0477 
  88   0.0000       0.791298        21.5323 
  89   0.0000       0.804087        21.8803 
  90   0.0000       0.806014        21.9328 
  91   0.0000       0.856557        23.3081 
  92   0.0000       0.881621        23.9901 
  93   0.0000       0.884284        24.0626 
  94   0.0000       0.899026        24.4637 
  95   0.0000       0.924739        25.1634 
  96   0.0000       0.937666        25.5152 
  97   0.0000       0.947651        25.7869 
  98   0.0000       0.956121        26.0174 
  99   0.0000       0.990793        26.9609 
 100   0.0000       1.020912        27.7804 
 101   0.0000       1.044875        28.4325 
 102   0.0000       1.062436        28.9103 
 103   0.0000       1.069592        29.1051 
 104   0.0000       1.077760        29.3273 
 105   0.0000       1.091541        29.7023 
 106   0.0000       1.096078        29.8258 
 107   0.0000       1.117515        30.4091 
 108   0.0000       1.124317        30.5942 
 109   0.0000       1.137383        30.9498 
 110   0.0000       1.145403        31.1680 
 111   0.0000       1.180891        32.1337 
 112   0.0000       1.185834        32.2682 
 113   0.0000       1.221504        33.2388 
 114   0.0000       1.248689        33.9786 
 115   0.0000       1.295507        35.2525 
 116   0.0000       1.315934        35.8084 
 117   0.0000       1.318540        35.8793 
 118   0.0000       1.321006        35.9464 
 119   0.0000       1.355010        36.8717 
 120   0.0000       1.411163        38.3997 
 121   0.0000       1.416992        38.5583 
 122   0.0000       1.476147        40.1680 
 123   0.0000       1.488519        40.5047 
 124   0.0000       1.490861        40.5684 
 125   0.0000       1.518889        41.3311 
 126   0.0000       1.538135        41.8548 
 127   0.0000       1.561815        42.4991 
 128   0.0000       1.567145        42.6442 
 129   0.0000       1.594080        43.3771 
 130   0.0000       1.615129        43.9499 
 131   0.0000       1.626581        44.2615 
 132   0.0000       1.635279        44.4982 
 133   0.0000       1.658036        45.1174 
 134   0.0000       1.674346        45.5613 
 135   0.0000       1.688719        45.9524 
 136   0.0000       1.702117        46.3170 
 137   0.0000       1.728393        47.0320 
 138   0.0000       1.731941        47.1285 
 139   0.0000       1.741309        47.3834 
 140   0.0000       1.756123        47.7865 
 141   0.0000       1.791347        48.7450 
 142   0.0000       1.794831        48.8398 
 143   0.0000       1.837920        50.0123 
 144   0.0000       1.860194        50.6185 
 145   0.0000       1.877373        51.0859 
 146   0.0000       1.922627        52.3173 
 147   0.0000       1.934458        52.6393 
 148   0.0000       1.950685        53.0808 
 149   0.0000       1.981898        53.9302 
 150   0.0000       2.031124        55.2697 
 151   0.0000       2.059884        56.0523 
 152   0.0000       2.067139        56.2497 
 153   0.0000       2.085385        56.7462 
 154   0.0000       2.121336        57.7245 
 155   0.0000       2.133213        58.0477 
 156   0.0000       2.146944        58.4213 
 157   0.0000       2.182147        59.3792 
 158   0.0000       2.214086        60.2483 
 159   0.0000       2.230545        60.6962 
 160   0.0000       2.265506        61.6476 
 161   0.0000       2.290226        62.3202 
 162   0.0000       2.312962        62.9389 
 163   0.0000       2.338882        63.6442 
 164   0.0000       2.351391        63.9846 
 165   0.0000       2.379474        64.7488 
 166   0.0000       2.420095        65.8541 
 167   0.0000       2.434635        66.2498 
 168   0.0000       2.472347        67.2760 
 169   0.0000       2.503522        68.1243 
 170   0.0000       2.542516        69.1854 
 171   0.0000       2.562869        69.7392 
 172   0.0000       2.590161        70.4819 
 173   0.0000       2.602167        70.8086 
 174   0.0000       2.631469        71.6059 
 175   0.0000       2.674127        72.7667 
 176   0.0000       2.705822        73.6291 
 177   0.0000       2.714181        73.8566 
 178   0.0000       2.760665        75.1215 
 179   0.0000       2.771764        75.4235 
 180   0.0000       2.782272        75.7095 
 181   0.0000       2.861683        77.8704 
 182   0.0000       2.898485        78.8718 
 183   0.0000       2.963831        80.6499 
 184   0.0000       3.020717        82.1979 
 185   0.0000       3.072131        83.5969 
 186   0.0000       3.120375        84.9097 
 187   0.0000       3.130701        85.1907 
 188   0.0000       3.320450        90.3540 
 189   0.0000       3.393844        92.3512 
 190   0.0000       3.455545        94.0302 
 191   0.0000       3.477142        94.6178 
 192   0.0000       3.497845        95.1812 
 193   0.0000       3.643769        99.1520 
-------
TIMINGS
-------

Total SCF time: 0 days 0 hours 0 min 23 sec 

Total time                  ....      23.196 sec
Sum of individual times     ....      23.100 sec  ( 99.6%)

Fock matrix formation       ....      21.492 sec  ( 92.7%)
  Split-RI-J                ....       3.372 sec  ( 15.7% of F)
  Chain of spheres X        ....      16.641 sec  ( 77.4% of F)
  COS-X 1 center corr.      ....       0.000 sec  (  0.0% of F)
  XC integration            ....       1.433 sec  (  6.7% of F)
    Basis function eval.    ....       0.544 sec  ( 38.0% of XC)
    Density eval.           ....       0.248 sec  ( 17.3% of XC)
    XC-Functional eval.     ....       0.060 sec  (  4.2% of XC)
    XC-Potential eval.      ....       0.442 sec  ( 30.9% of XC)
Diagonalization             ....       0.013 sec  (  0.1%)
Density matrix formation    ....       0.074 sec  (  0.3%)
Population analysis         ....       0.000 sec  (  0.0%)
Initial guess               ....       0.013 sec  (  0.1%)
Orbital Transformation      ....       0.000 sec  (  0.0%)
Orbital Orthonormalization  ....       0.009 sec  (  0.0%)
DIIS solution               ....       0.003 sec  (  0.0%)
SOSCF solution              ....       0.163 sec  (  0.7%)
Grid generation             ....       1.343 sec  (  5.8%)


-------------------------------------------------------------------------------
                          DFT DISPERSION CORRECTION                            
                                                                               
                              DFTD3 V3.1  Rev 1                                
                          USING Becke-Johnson damping                          
-------------------------------------------------------------------------------
The B3LYP functional is recognized
Active option DFTDOPT                   ...         4   

molecular C6(AA) [au] = 3902.342487 


            DFT-D V3
 parameters
 s6 scaling factor         :     1.0000 
 a1 scaling factor         :     0.3981 
 s8 scaling factor         :     1.9889 
 a2 scaling factor         :     4.4211 
 ad hoc parameters k1-k3   :    16.0000     1.3333    -4.0000 

 Edisp/kcal,au: -19.160974200318  -0.030534952775 
 E6   /kcal   :  -9.252053463 
 E8   /kcal   :  -9.908920738 
 % E8         :  51.714075881 

-------------------------   ----------------
Dispersion correction           -0.030534953
-------------------------   ----------------


-------------------------   --------------------
FINAL SINGLE POINT ENERGY      -564.616238108905
-------------------------   --------------------

                                *** OPTIMIZATION RUN DONE ***

                            ***************************************
                            *     ORCA property calculations      *
                            ***************************************

                                    ---------------------
                                    Active property flags
                                    ---------------------
   (+) Dipole Moment


------------------------------------------------------------------------------
                       ORCA ELECTRIC PROPERTIES CALCULATION
------------------------------------------------------------------------------

Dipole Moment Calculation                       ... on
Quadrupole Moment Calculation                   ... off
Polarizability Calculation                      ... off
GBWName                                         ... AT-v/e/frag_25_c00001.gbw
Electron density file                           ... AT-v/e/frag_25_c00001.scfp.tmp
The origin for moment calculation is the CENTER OF MASS  = (-3.166447,  0.169654  0.018460)

-------------
DIPOLE MOMENT
-------------
                                X             Y             Z
Electronic contribution:     -4.37202       2.83130      -0.13311
Nuclear contribution   :      3.84673      -3.07786       0.39669
                        -----------------------------------------
Total Dipole Moment    :     -0.52529      -0.24657       0.26358
                        -----------------------------------------
Magnitude (a.u.)       :      0.63734
Magnitude (Debye)      :      1.61998


Timings for individual modules:

Sum of individual times         ...      171.907 sec (=   2.865 min)
GTO integral calculation        ...        5.702 sec (=   0.095 min)   3.3 %
SCF iterations                  ...      137.595 sec (=   2.293 min)  80.0 %
SCF Gradient evaluation         ...       28.235 sec (=   0.471 min)  16.4 %
Geometry relaxation             ...        0.374 sec (=   0.006 min)   0.2 %
                             ****ORCA TERMINATED NORMALLY****
TOTAL RUN TIME: 0 days 0 hours 2 minutes 53 seconds 582 msec
