
                                 *****************
                                 * O   R   C   A *
                                 *****************

           --- An Ab Initio, DFT and Semiempirical electronic structure package ---

                  #######################################################
                  #                        -***-                        #
                  #  Department of molecular theory and spectroscopy    #
                  #              Directorship: Frank Neese              #
                  # Max Planck Institute for Chemical Energy Conversion #
                  #                  D-45470 Muelheim/Ruhr              #
                  #                       Germany                       #
                  #                                                     #
                  #                  All rights reserved                #
                  #                        -***-                        #
                  #######################################################


                         Program Version 4.0.1.2 - RELEASE -


 With contributions from (in alphabetic order):
   Daniel Aravena         : Magnetic Properties
   Michael Atanasov       : Ab Initio Ligand Field Theory
   Ute Becker             : Parallelization
   Martin Brehm           : Molecular dynamics
   Dmytro Bykov           : SCF Hessian
   Vijay G. Chilkuri      : MRCI spin determinant printing
   Dipayan Datta          : RHF DLPNO-CCSD density
   Achintya Kumar Dutta   : EOM-CC, STEOM-CC
   Dmitry Ganyushin       : Spin-Orbit,Spin-Spin,Magnetic field MRCI
   Yang Guo               : DLPNO-NEVPT2, CIM, IAO-localization
   Andreas Hansen         : Spin unrestricted coupled pair/coupled cluster methods
   Lee Huntington         : MR-EOM, pCC
   Robert Izsak           : Overlap fitted RIJCOSX, COSX-SCS-MP3, EOM
   Christian Kollmar      : KDIIS, OOCD, Brueckner-CCSD(T), CCSD density
   Simone Kossmann        : Meta GGA functionals, TD-DFT gradient, OOMP2, MP2 Hessian
   Martin Krupicka        : AUTO-CI
   Dagmar Lenk            : GEPOL surface
   Dimitrios Liakos       : Extrapolation schemes; parallel MDCI
   Dimitrios Manganas     : ROCIS; embedding schemes
   Dimitrios Pantazis     : SARC Basis sets
   Taras Petrenko         : DFT Hessian,TD-DFT gradient, ASA, ECA, R-Raman, ABS, FL, XAS/XES, NRVS
   Peter Pinski           : DLPNO-MP2
   Christoph Reimann      : Effective Core Potentials
   Marius Retegan         : Local ZFS, SOC
   Christoph Riplinger    : Optimizer, TS searches, QM/MM, DLPNO-CCSD(T), (RO)-DLPNO pert. Triples
   Tobias Risthaus        : Range-separated hybrids, TD-DFT gradient, RPA, STAB
   Michael Roemelt        : Restricted open shell CIS
   Masaaki Saitow         : Open-shell DLPNO
   Barbara Sandhoefer     : DKH picture change effects
   Kantharuban Sivalingam : CASSCF convergence, NEVPT2, FIC-MRCI
   Georgi Stoychev        : AutoAux
   Boris Wezisla          : Elementary symmetry handling
   Frank Wennmohs         : Technical directorship


 We gratefully acknowledge several colleagues who have allowed us to
 interface, adapt or use parts of their codes:
   Stefan Grimme, W. Hujo, H. Kruse,             : VdW corrections, initial TS optimization,
                  C. Bannwarth                     DFT functionals, gCP, sTDA/sTD-DF
   Ed Valeev                                     : LibInt (2-el integral package), F12 methods
   Garnet Chan, S. Sharma, J. Yang, R. Olivares  : DMRG
   Ulf Ekstrom                                   : XCFun DFT Library
   Mihaly Kallay                                 : mrcc  (arbitrary order and MRCC methods)
   Andreas Klamt, Michael Diedenhofen            : otool_cosmo (COSMO solvation model)
   Jiri Pittner, Ondrej Demel                    : Mk-CCSD
   Frank Weinhold                                : gennbo (NPA and NBO analysis)
   Christopher J. Cramer and Donald G. Truhlar   : smd solvation model


 Your calculation uses the libint2 library for the computation of 2-el integrals
 For citations please refer to: http://libint.valeyev.net

 This ORCA versions uses:
   CBLAS   interface :  Fast vector & matrix operations
   LAPACKE interface :  Fast linear algebra routines
   SCALAPACK package :  Parallel linear algebra routines


Your calculation utilizes the atom-pairwise dispersion correction
with the Becke-Johnson damping scheme (D3BJ)
Cite in your paper:
S.Grimme, S.Ehrlich, L.Goerigk, J Comput Chem, (2011), 32, 1456–1465 
S.Grimme, J.Antony, S.Ehrlich and H.Krieg, J.Chem.Phys., 132, (2010), 154104 
   

Your calculation utilizes the basis: cc-pVDZ 
       H, B-Ne : Obtained from the ccRepo (grant-hill.group.shef.ac.uk/ccrepo) Feb. 2017
                 T. H. Dunning, Jr., J. Chem. Phys. 90, 1007 (1989)
            He : Obtained from the ccRepo (grant-hill.group.shef.ac.uk/ccrepo) Feb. 2017
                 D. E. Woon, T. H. Dunning, Jr., J. Chem. Phys. 100, 2975 (1994)
  Li-Be, Na-Mg : Obtained from the ccRepo (grant-hill.group.shef.ac.uk/ccrepo) Feb. 2017
                 B. P. Prascher, D. E. Woon, K. A. Peterson, T. H. Dunning, Jr., A. K. Wilson, Theor. Chem. Acc. 128, 69 (2011)
         Al-Ar : Obtained from the ccRepo (grant-hill.group.shef.ac.uk/ccrepo) Feb. 2017
                 D. E. Woon, T. H. Dunning, Jr., J. Chem. Phys. 98, 1358 (1993)
            Ca : Obtained from the Peterson Research Group Website (tyr0.chem.wsu.edu/~kipeters) Feb. 2017
                 J. Koput, K. A. Peterson, J. Phys. Chem. 106, 9595 (2002)
         Sc-Zn : Obtained from the ccRepo (grant-hill.group.shef.ac.uk/ccrepo) Feb. 2017
                 N. B. Balabanov, K. A. Peterson, J. Chem. Phys. 123, 064107 (2005)
                 N. B. Balabanov, K. A. Peterson, J. Chem. Phys. 125, 074110 (2006)
         Ga-Kr : Obtained from the ccRepo (grant-hill.group.shef.ac.uk/ccrepo) Feb. 2017
                 A. K. Wilson, D. E. Woon, K. A. Peterson, T. H. Dunning, Jr., J. Chem. Phys. 110, 7667 (1999)

Your calculation utilizes the auxiliary basis: def2/J
   F. Weigend, Phys. Chem. Chem. Phys. 8, 1057 (2006).

================================================================================
                                        WARNINGS
                       Please study these warnings very carefully!
================================================================================

Warning: TCutStore was < 0. Adjusted to Thresh (uncritical)

WARNING: Geometry Optimization
  ===> : Switching off AutoStart
         For restart on a previous wavefunction, please use MOREAD

INFO   : the flag for use of LIBINT has been found!

================================================================================
                                       INPUT FILE
================================================================================
NAME = AT-v/e/frag_03_c00001.com
|  1> %pal nprocs 6 end
|  2> %maxcore 1000
|  3> ! b3lyp TIGHTSCF nopop D3BJ
|  4> ! cc-pvdz def2/J RIJCOSX
|  5> ! Opt
|  6> 
|  7> %geom
|  8> maxiter 60
|  9> TolE 1e-4
| 10> TolRMSG 2e-3
| 11> TolMaxG 3e-3
| 12> TolRMSD 2e-2
| 13> TolMaxD 3e-2
| 14> end
| 15> 
| 16> *xyz 0 1
| 17> C 1.5933 -0.7308 0.0174
| 18> N 1.035 -1.943 -0.1747
| 19> N 0.9109 0.3569 0.0833
| 20> C -2.4607 1.6392 -0.0865
| 21> O -1.9207 2.734 -0.1693
| 22> N -1.7954 0.4503 0.0121
| 23> C -2.386 -0.7775 0.1048
| 24> O -1.7704 -1.8342 0.1924
| 25> H 2.6935 -0.748 0.1025
| 26> H 1.498 -2.7463 0.2308
| 27> H 0.0179 -1.9751 -0.0501
| 28> H 1.5607 1.1461 0.2152
| 29> H -3.5578 1.5306 -0.0846
| 30> H -0.7699 0.4806 0.0123
| 31> H -3.4877 -0.7416 0.0952
| 32> *
| 33> 
| 34> 
| 35>                          ****END OF INPUT****
================================================================================

                       *****************************
                       * Geometry Optimization Run *
                       *****************************

Geometry optimization settings:
Update method            Update   .... BFGS
Choice of coordinates    CoordSys .... Redundant Internals
Initial Hessian          InHess   .... Almoef's Model

Convergence Tolerances:
Energy Change            TolE     ....  1.0000e-04 Eh
Max. Gradient            TolMAXG  ....  3.0000e-03 Eh/bohr
RMS Gradient             TolRMSG  ....  2.0000e-03 Eh/bohr
Max. Displacement        TolMAXD  ....  3.0000e-02 bohr
RMS Displacement         TolRMSD  ....  2.0000e-02 bohr

------------------------------------------------------------------------------
                        ORCA OPTIMIZATION COORDINATE SETUP
------------------------------------------------------------------------------

The optimization will be done in new redundant internal coordinates
Making redundant internal coordinates   ...  (new redundants) done
Evaluating the initial hessian          ...  (Almloef) done
Evaluating the coordinates              ...  done
Calculating the B-matrix                .... done
Calculating the G-matrix                .... done
Diagonalizing the G-matrix              .... done
The first mode is                       ....   22
The number of degrees of freedom        ....   39

    -----------------------------------------------------------------
                    Redundant Internal Coordinates


    -----------------------------------------------------------------
         Definition                    Initial Value    Approx d2E/dq
    -----------------------------------------------------------------
      1. B(N   1,C   0)                  1.3483         0.652132   
      2. B(N   2,C   0)                  1.2857         0.820787   
      3. B(O   4,C   3)                  1.2235         1.031470   
      4. B(N   5,C   3)                  1.3660         0.611280   
      5. B(C   6,N   5)                  1.3656         0.612049   
      6. B(O   7,C   6)                  1.2261         1.021910   
      7. B(H   8,C   0)                  1.1036         0.342525   
      8. B(H   9,N   1)                  1.0120         0.429582   
      9. B(H  10,O   7)                  1.8102         0.022887   
     10. B(H  10,N   1)                  1.0252         0.409199   
     11. B(H  11,N   2)                  1.0308         0.400929   
     12. B(H  12,C   3)                  1.1025         0.343984   
     13. B(H  13,N   2)                  1.6868         0.036003   
     14. B(H  13,N   5)                  1.0259         0.408086   
     15. B(H  14,C   6)                  1.1023         0.344157   
     16. A(N   1,C   0,N   2)          123.2366         0.454821   
     17. A(N   1,C   0,H   8)          114.1894         0.350767   
     18. A(N   2,C   0,H   8)          122.5704         0.364755   
     19. A(H   9,N   1,H  10)          112.3554         0.300218   
     20. A(C   0,N   1,H  10)          114.9371         0.358343   
     21. A(C   0,N   1,H   9)          117.8471         0.361323   
     22. A(C   0,N   2,H  11)          108.6442         0.371429   
     23. A(H  11,N   2,H  13)          125.2670         0.208957   
     24. A(C   0,N   2,H  13)          126.0668         0.252680   
     25. A(N   5,C   3,H  12)          113.5048         0.347210   
     26. A(O   4,C   3,H  12)          121.8337         0.379670   
     27. A(O   4,C   3,N   5)          124.6615         0.468637   
     28. A(C   6,N   5,H  13)          117.3117         0.354340   
     29. A(C   3,N   5,C   6)          125.2260         0.426337   
     30. A(C   3,N   5,H  13)          117.4617         0.354265   
     31. A(N   5,C   6,H  14)          113.7259         0.347313   
     32. A(N   5,C   6,O   7)          124.2350         0.467945   
     33. A(O   7,C   6,H  14)          122.0390         0.379091   
     34. A(C   6,O   7,H  10)          123.6104         0.244241   
     35. A(N   1,H  10,O   7)          173.6981         0.197768   
     36. A(N   2,H  13,N   5)          173.6303         0.209438   
     37. D(H  10,N   1,C   0,N   2)    -13.5313         0.034727   
     38. D(H   9,N   1,C   0,N   2)   -149.5884         0.034727   
     39. D(H  10,N   1,C   0,H   8)    167.1373         0.034727   
     40. D(H   9,N   1,C   0,H   8)     31.0802         0.034727   
     41. D(H  11,N   2,C   0,N   1)   -178.9015         0.057804   
     42. D(H  13,N   2,C   0,N   1)      2.7342         0.057804   
     43. D(H  11,N   2,C   0,H   8)      0.3748         0.057804   
     44. D(H  13,N   2,C   0,H   8)   -177.9895         0.057804   
     45. D(H  13,N   5,C   3,H  12)    179.7688         0.030192   
     46. D(H  13,N   5,C   3,O   4)     -0.2835         0.030192   
     47. D(C   6,N   5,C   3,H  12)      0.0658         0.030192   
     48. D(C   6,N   5,C   3,O   4)   -179.9865         0.030192   
     49. D(H  14,C   6,N   5,C   3)     -0.0624         0.030273   
     50. D(O   7,C   6,N   5,H  13)      0.2848         0.030273   
     51. D(O   7,C   6,N   5,C   3)    179.9882         0.030273   
     52. D(H  14,C   6,N   5,H  13)   -179.7659         0.030273   
     53. D(H  10,O   7,C   6,H  14)    169.9219         0.086122   
     54. D(H  10,O   7,C   6,N   5)    -10.1327         0.086122   
     55. D(N   1,H  10,O   7,C   6)     16.2937         0.001746   
     56. D(O   7,H  10,N   1,H   9)    143.9262         0.187822   
     57. D(O   7,H  10,N   1,C   0)      5.4892         0.187822   
     58. D(N   2,H  13,N   5,C   6)    -17.8003         0.186544   
     59. D(N   2,H  13,N   5,C   3)    162.4727         0.186544   
     60. D(N   5,H  13,N   2,H  11)   -150.6367         0.002221   
     61. D(N   5,H  13,N   2,C   0)     27.4649         0.002221   
    -----------------------------------------------------------------

Number of atoms                         .... 15
Number of degrees of freedom            .... 61

         *************************************************************
         *                GEOMETRY OPTIMIZATION CYCLE   1            *
         *************************************************************
---------------------------------
CARTESIAN COORDINATES (ANGSTROEM)
---------------------------------
  C      1.593300   -0.730800    0.017400
  N      1.035000   -1.943000   -0.174700
  N      0.910900    0.356900    0.083300
  C     -2.460700    1.639200   -0.086500
  O     -1.920700    2.734000   -0.169300
  N     -1.795400    0.450300    0.012100
  C     -2.386000   -0.777500    0.104800
  O     -1.770400   -1.834200    0.192400
  H      2.693500   -0.748000    0.102500
  H      1.498000   -2.746300    0.230800
  H      0.017900   -1.975100   -0.050100
  H      1.560700    1.146100    0.215200
  H     -3.557800    1.530600   -0.084600
  H     -0.769900    0.480600    0.012300
  H     -3.487700   -0.741600    0.095200

----------------------------
CARTESIAN COORDINATES (A.U.)
----------------------------
  NO LB      ZA    FRAG     MASS         X           Y           Z
   0 C     6.0000    0    12.011    3.010901   -1.381012    0.032881
   1 N     7.0000    0    14.007    1.955867   -3.671738   -0.330135
   2 N     7.0000    0    14.007    1.721352    0.674443    0.157414
   3 C     6.0000    0    12.011   -4.650049    3.097639   -0.163461
   4 O     8.0000    0    15.999   -3.629597    5.166511   -0.319931
   5 N     7.0000    0    14.007   -3.392814    0.850944    0.022866
   6 C     6.0000    0    12.011   -4.508887   -1.469262    0.198043
   7 O     8.0000    0    15.999   -3.345571   -3.466136    0.363583
   8 H     1.0000    0     1.008    5.089977   -1.413515    0.193697
   9 H     1.0000    0     1.008    2.830810   -5.189755    0.436149
  10 H     1.0000    0     1.008    0.033826   -3.732398   -0.094675
  11 H     1.0000    0     1.008    2.949296    2.165815    0.406669
  12 H     1.0000    0     1.008   -6.723268    2.892415   -0.159871
  13 H     1.0000    0     1.008   -1.454900    0.908202    0.023244
  14 H     1.0000    0     1.008   -6.590798   -1.401421    0.179902

--------------------------------
INTERNAL COORDINATES (ANGSTROEM)
--------------------------------
 C      0   0   0     0.000000000000     0.00000000     0.00000000
 N      1   0   0     1.348343479978     0.00000000     0.00000000
 N      1   2   0     1.285730866084   123.23658487     0.00000000
 C      3   1   2     3.611206431374   142.51574877   359.57390619
 O      4   3   1     1.223537036628    84.77021421   192.52616030
 N      4   3   1     1.365953608290    39.89696409    11.60871951
 C      6   4   3     1.365611397873   125.22596414   178.90268754
 O      7   6   4     1.226071780117   124.23501364   179.98819139
 H      1   2   3     1.103620355920   114.18943622   180.66862505
 H      2   1   3     1.011973388978   117.84709842   210.41158134
 H      2   1   3     1.025206310944   114.93712714   346.46870221
 H      3   1   2     1.030763935147   108.64423165   181.09852016
 H      4   3   1     1.102463595771   153.38631067    13.99010200
 H      6   4   3     1.025947552266   117.46166622   358.60571912
 H      7   6   4     1.102326566858   113.72594483   359.93756928

---------------------------
INTERNAL COORDINATES (A.U.)
---------------------------
 C      0   0   0     0.000000000000     0.00000000     0.00000000
 N      1   0   0     2.547999911617     0.00000000     0.00000000
 N      1   2   0     2.429679218827   123.23658487     0.00000000
 C      3   1   2     6.824191168353   142.51574877   359.57390619
 O      4   3   1     2.312149913936    84.77021421   192.52616030
 N      4   3   1     2.581278231309    39.89696409    11.60871951
 C      6   4   3     2.580631547341   125.22596414   178.90268754
 O      7   6   4     2.316939884951   124.23501364   179.98819139
 H      1   2   3     2.085540228509   114.18943622   180.66862505
 H      2   1   3     1.912352559985   117.84709842   210.41158134
 H      2   1   3     1.937359158452   114.93712714   346.46870221
 H      3   1   2     1.947861546151   108.64423165   181.09852016
 H      4   3   1     2.083354268625   153.38631067    13.99010200
 H      6   4   3     1.938759901549   117.46166622   358.60571912
 H      7   6   4     2.083095321506   113.72594483   359.93756928

---------------------
BASIS SET INFORMATION
---------------------
There are 4 groups of distinct atoms

 Group   1 Type C   : 17s4p1d contracted to 3s2p1d pattern {881/31/1}
 Group   2 Type N   : 17s4p1d contracted to 3s2p1d pattern {881/31/1}
 Group   3 Type O   : 17s4p1d contracted to 3s2p1d pattern {881/31/1}
 Group   4 Type H   : 4s1p contracted to 2s1p pattern {31/1}

Atom   0C    basis set group =>   1
Atom   1N    basis set group =>   2
Atom   2N    basis set group =>   2
Atom   3C    basis set group =>   1
Atom   4O    basis set group =>   3
Atom   5N    basis set group =>   2
Atom   6C    basis set group =>   1
Atom   7O    basis set group =>   3
Atom   8H    basis set group =>   4
Atom   9H    basis set group =>   4
Atom  10H    basis set group =>   4
Atom  11H    basis set group =>   4
Atom  12H    basis set group =>   4
Atom  13H    basis set group =>   4
Atom  14H    basis set group =>   4
-------------------------------
AUXILIARY BASIS SET INFORMATION
-------------------------------
There are 4 groups of distinct atoms

 Group   1 Type C   : 12s5p4d2f1g contracted to 6s4p3d1f1g pattern {711111/2111/211/2/1}
 Group   2 Type N   : 12s5p4d2f1g contracted to 6s4p3d1f1g pattern {711111/2111/211/2/1}
 Group   3 Type O   : 12s5p4d2f1g contracted to 6s4p3d1f1g pattern {711111/2111/211/2/1}
 Group   4 Type H   : 5s2p1d contracted to 3s1p1d pattern {311/2/1}

Atom   0C    basis set group =>   1
Atom   1N    basis set group =>   2
Atom   2N    basis set group =>   2
Atom   3C    basis set group =>   1
Atom   4O    basis set group =>   3
Atom   5N    basis set group =>   2
Atom   6C    basis set group =>   1
Atom   7O    basis set group =>   3
Atom   8H    basis set group =>   4
Atom   9H    basis set group =>   4
Atom  10H    basis set group =>   4
Atom  11H    basis set group =>   4
Atom  12H    basis set group =>   4
Atom  13H    basis set group =>   4
Atom  14H    basis set group =>   4


           ************************************************************
           *        Program running with 6 parallel MPI-processes     *
           *              working on a common directory               *
           ************************************************************
------------------------------------------------------------------------------
                           ORCA GTO INTEGRAL CALCULATION
                           -- RI-GTO INTEGRALS CHOSEN --
------------------------------------------------------------------------------

                         BASIS SET STATISTICS AND STARTUP INFO

Gaussian basis set:
 # of primitive gaussian shells          ...  211
 # of primitive gaussian functions       ...  321
 # of contracted shells                  ...   69
 # of contracted basis functions         ...  147
 Highest angular momentum                ...    2
 Maximum contraction depth               ...    8
Auxiliary gaussian basis set:
 # of primitive gaussian shells          ...  248
 # of primitive gaussian functions       ...  672
 # of contracted shells                  ...  155
 # of contracted aux-basis functions     ...  469
 Highest angular momentum                ...    4
 Maximum contraction depth               ...    7
Ratio of auxiliary to basis functions    ...  3.19
Integral package used                  ... LIBINT
 One Electron integrals                  ... done
 Ordering auxiliary basis shells         ... done
 Integral threshhold             Thresh  ...  2.500e-11
 Primitive cut-off               TCut    ...  2.500e-12
 Pre-screening matrix                    ... done
 Shell pair data                         ... 
 Ordering of the shell pairs             ... done (   0.001 sec) 2278 of 2415 pairs
 Determination of significant pairs      ... done (   0.000 sec)
 Creation of shell pair data             ... done (   0.002 sec)
 Storage of shell pair data              ... done (   0.002 sec)
 Shell pair data done in (   0.004 sec)
 Computing two index integrals           ... done
 Cholesky decomposition of the V-matrix  ... done


Timings:
 Total evaluation time                   ...   0.350 sec (  0.006 min)
 One electron matrix time                ...   0.037 sec (  0.001 min) = 10.5%
 Schwartz matrix evaluation time         ...   0.274 sec (  0.005 min) = 78.3%
 Two index repulsion integral time       ...   0.008 sec (  0.000 min) =  2.2%
 Cholesky decomposition of V             ...   0.007 sec (  0.000 min) =  2.0%
 Three index repulsion integral time     ...   0.000 sec (  0.000 min) =  0.0%



           ************************************************************
           *        Program running with 6 parallel MPI-processes     *
           *              working on a common directory               *
           ************************************************************
-------------------------------------------------------------------------------
                                 ORCA SCF
-------------------------------------------------------------------------------

------------
SCF SETTINGS
------------
Hamiltonian:
 Density Functional     Method          .... DFT(GTOs)
 Exchange Functional    Exchange        .... B88
   X-Alpha parameter    XAlpha          ....  0.666667
   Becke's b parameter  XBeta           ....  0.004200
 Correlation Functional Correlation     .... LYP
 LDA part of GGA corr.  LDAOpt          .... VWN-5
 Gradients option       PostSCFGGA      .... off
 Hybrid DFT is turned on
   Fraction HF Exchange ScalHFX         ....  0.200000
   Scaling of DF-GGA-X  ScalDFX         ....  0.720000
   Scaling of DF-GGA-C  ScalDFC         ....  0.810000
   Scaling of DF-LDA-C  ScalLDAC        ....  1.000000
   Perturbative correction              ....  0.000000
   NL short-range parameter             ....  4.800000
 RI-approximation to the Coulomb term is turned on
   Number of auxiliary basis functions  .... 469
   RIJ-COSX (HFX calculated with COS-X)).... on


General Settings:
 Integral files         IntName         .... AT-v/e/frag_03_c00001
 Hartree-Fock type      HFTyp           .... RHF
 Total Charge           Charge          ....    0
 Multiplicity           Mult            ....    1
 Number of Electrons    NEL             ....   62
 Basis Dimension        Dim             ....  147
 Nuclear Repulsion      ENuc            ....    358.6310752736 Eh

Convergence Acceleration:
 DIIS                   CNVDIIS         .... on
   Start iteration      DIISMaxIt       ....    12
   Startup error        DIISStart       ....  0.200000
   # of expansion vecs  DIISMaxEq       ....     5
   Bias factor          DIISBfac        ....   1.050
   Max. coefficient     DIISMaxC        ....  10.000
 Newton-Raphson         CNVNR           .... off
 SOSCF                  CNVSOSCF        .... on
   Start iteration      SOSCFMaxIt      ....   150
   Startup grad/error   SOSCFStart      ....  0.003300
 Level Shifting         CNVShift        .... on
   Level shift para.    LevelShift      ....    0.2500
   Turn off err/grad.   ShiftErr        ....    0.0010
 Zerner damping         CNVZerner       .... off
 Static damping         CNVDamp         .... on
   Fraction old density DampFac         ....    0.7000
   Max. Damping (<1)    DampMax         ....    0.9800
   Min. Damping (>=0)   DampMin         ....    0.0000
   Turn off err/grad.   DampErr         ....    0.1000
 Fernandez-Rico         CNVRico         .... off

SCF Procedure:
 Maximum # iterations   MaxIter         ....   125
 SCF integral mode      SCFMode         .... Direct
   Integral package                     .... LIBINT
 Reset frequeny         DirectResetFreq ....    20
 Integral Threshold     Thresh          ....  2.500e-11 Eh
 Primitive CutOff       TCut            ....  2.500e-12 Eh

Convergence Tolerance:
 Convergence Check Mode ConvCheckMode   .... Total+1el-Energy
 Convergence forced     ConvForced      .... 0
 Energy Change          TolE            ....  1.000e-08 Eh
 1-El. energy change                    ....  1.000e-05 Eh
 Orbital Gradient       TolG            ....  1.000e-05
 Orbital Rotation angle TolX            ....  1.000e-05
 DIIS Error             TolErr          ....  5.000e-07


Diagonalization of the overlap matrix:
Smallest eigenvalue                        ... 5.021e-03
Time for diagonalization                   ...    0.005 sec
Threshold for overlap eigenvalues          ... 1.000e-08
Number of eigenvalues below threshold      ... 0
Time for construction of square roots      ...    0.002 sec
Total time needed                          ...    0.008 sec

-------------------
DFT GRID GENERATION
-------------------

General Integration Accuracy     IntAcc      ...  4.340
Radial Grid Type                 RadialGrid  ... Gauss-Chebyshev
Angular Grid (max. acc.)         AngularGrid ... Lebedev-110
Angular grid pruning method      GridPruning ... 3 (G Style)
Weight generation scheme         WeightScheme... Becke
Basis function cutoff            BFCut       ...    1.0000e-11
Integration weight cutoff        WCut        ...    1.0000e-14
Grids for H and He will be reduced by one unit

# of grid points (after initial pruning)     ...  19064 (   0.0 sec)
# of grid points (after weights+screening)   ...  17903 (   0.0 sec)
nearest neighbour list constructed           ...    0.0 sec
Grid point re-assignment to atoms done       ...    0.0 sec
Grid point division into batches done        ...    0.0 sec
Reduced shell lists constructed in    0.1 sec

Total number of grid points                  ...    17903
Total number of batches                      ...      287
Average number of points per batch           ...       62
Average number of grid points per atom       ...     1194
Average number of shells per batch           ...    53.16 (77.05%)
Average number of basis functions per batch  ...   110.96 (75.48%)
Average number of large shells per batch     ...    40.63 (76.43%)
Average number of large basis fcns per batch ...    82.47 (74.32%)
Maximum spatial batch extension              ...   9.76,  8.84, 16.87 au
Average spatial batch extension              ...   0.33,  0.33,  0.45 au

Time for grid setup =    0.099 sec

------------------------------
INITIAL GUESS: MODEL POTENTIAL
------------------------------
Loading Hartree-Fock densities                     ... done
Calculating cut-offs                               ... done
Setting up the integral package                    ... done
Initializing the effective Hamiltonian             ... done
Starting the Coulomb interaction                   ... done (   0.0 sec)
Reading the grid                                   ... done
Mapping shells                                     ... done
Starting the XC term evaluation                    ... done (   0.1 sec)
  promolecular density results
     # of electrons  =     62.013541253
     EX              =    -53.603258819
     EC              =     -2.133441410
     EX+EC           =    -55.736700229
Transforming the Hamiltonian                       ... done (   0.0 sec)
Diagonalizing the Hamiltonian                      ... done (   0.0 sec)
Back transforming the eigenvectors                 ... done (   0.0 sec)
Now organizing SCF variables                       ... done
                      ------------------
                      INITIAL GUESS DONE (   0.3 sec)
                      ------------------
--------------------
COSX GRID GENERATION
--------------------

General Integration Accuracy     IntAcc      ...  3.340
Radial Grid Type                 RadialGrid  ... Gauss-Chebyshev
Angular Grid (max. acc.)         AngularGrid ... Lebedev-50
Angular grid pruning method      GridPruning ... 3 (G Style)
Weight generation scheme         WeightScheme... Becke
Basis function cutoff            BFCut       ...    1.0000e-11
Integration weight cutoff        WCut        ...    1.0000e-14
Grids for H and He will be reduced by one unit

# of grid points (after initial pruning)     ...   6838 (   0.0 sec)
# of grid points (after weights+screening)   ...   6466 (   0.0 sec)
nearest neighbour list constructed           ...    0.0 sec
Grid point re-assignment to atoms done       ...    0.0 sec
Grid point division into batches done        ...    0.0 sec
Reduced shell lists constructed in    0.0 sec

Total number of grid points                  ...     6466
Total number of batches                      ...      109
Average number of points per batch           ...       59
Average number of grid points per atom       ...      431
Average number of shells per batch           ...    53.55 (77.61%)
Average number of basis functions per batch  ...   111.95 (76.16%)
Average number of large shells per batch     ...    40.90 (76.38%)
Average number of large basis fcns per batch ...    83.30 (74.41%)
Maximum spatial batch extension              ...   4.40,  8.30, 15.67 au
Average spatial batch extension              ...   0.37,  0.44,  0.66 au

Overlap Fitting                  UseSFitting ... on
Constructing numerical overlap ... done (      0.0 sec)
Inverting numerical overlap    ... done (      0.0 sec)
Obtaining analytic overlap     ... done (      0.0 sec)
Final contraction and storage  ... done (      0.0 sec)


General Integration Accuracy     IntAcc      ...  3.670
Radial Grid Type                 RadialGrid  ... Gauss-Chebyshev
Angular Grid (max. acc.)         AngularGrid ... Lebedev-50
Angular grid pruning method      GridPruning ... 3 (G Style)
Weight generation scheme         WeightScheme... Becke
Basis function cutoff            BFCut       ...    1.0000e-11
Integration weight cutoff        WCut        ...    1.0000e-14
Grids for H and He will be reduced by one unit

# of grid points (after initial pruning)     ...   8748 (   0.0 sec)
# of grid points (after weights+screening)   ...   8242 (   0.0 sec)
nearest neighbour list constructed           ...    0.0 sec
Grid point re-assignment to atoms done       ...    0.0 sec
Grid point division into batches done        ...    0.0 sec
Reduced shell lists constructed in    0.0 sec

Total number of grid points                  ...     8242
Total number of batches                      ...      136
Average number of points per batch           ...       60
Average number of grid points per atom       ...      549
Average number of shells per batch           ...    53.83 (78.02%)
Average number of basis functions per batch  ...   112.75 (76.70%)
Average number of large shells per batch     ...    41.12 (76.39%)
Average number of large basis fcns per batch ...    83.62 (74.17%)
Maximum spatial batch extension              ...   4.79,  6.42, 17.15 au
Average spatial batch extension              ...   0.34,  0.39,  0.60 au

Overlap Fitting                  UseSFitting ... on
Constructing numerical overlap ... done (      0.0 sec)
Inverting numerical overlap    ... done (      0.0 sec)
Obtaining analytic overlap     ... done (      0.0 sec)
Final contraction and storage  ... done (      0.0 sec)


General Integration Accuracy     IntAcc      ...  4.010
Radial Grid Type                 RadialGrid  ... Gauss-Chebyshev
Angular Grid (max. acc.)         AngularGrid ... Lebedev-110
Angular grid pruning method      GridPruning ... 3 (G Style)
Weight generation scheme         WeightScheme... Becke
Basis function cutoff            BFCut       ...    1.0000e-11
Integration weight cutoff        WCut        ...    1.0000e-14
Grids for H and He will be reduced by one unit

# of grid points (after initial pruning)     ...  16328 (   0.0 sec)
# of grid points (after weights+screening)   ...  15362 (   0.0 sec)
nearest neighbour list constructed           ...    0.0 sec
Grid point re-assignment to atoms done       ...    0.0 sec
Grid point division into batches done        ...    0.0 sec
Reduced shell lists constructed in    0.0 sec

Total number of grid points                  ...    15362
Total number of batches                      ...      248
Average number of points per batch           ...       61
Average number of grid points per atom       ...     1024
Average number of shells per batch           ...    53.28 (77.22%)
Average number of basis functions per batch  ...   111.28 (75.70%)
Average number of large shells per batch     ...    40.47 (75.95%)
Average number of large basis fcns per batch ...    81.95 (73.65%)
Maximum spatial batch extension              ...   9.37,  8.84, 16.35 au
Average spatial batch extension              ...   0.34,  0.34,  0.52 au

Overlap Fitting                  UseSFitting ... on
Constructing numerical overlap ... done (      0.0 sec)
Inverting numerical overlap    ... done (      0.0 sec)
Obtaining analytic overlap     ... done (      0.0 sec)
Final contraction and storage  ... done (      0.0 sec)

Time for X-Grid setup             =    0.287 sec
--------------
SCF ITERATIONS
--------------
ITER       Energy         Delta-E        Max-DP      RMS-DP      [F,P]     Damp
               ***  Starting incremental Fock matrix formation  ***
  0   -432.6959901663   0.000000000000 0.10563531  0.00315776  0.2732345 0.7000
  1   -432.8723909361  -0.176400769738 0.06025477  0.00192683  0.1119557 0.7000
                               ***Turning on DIIS***
  2   -432.9281580422  -0.055767106165 0.07438679  0.00243823  0.0469609 0.0000
  3   -433.0307283999  -0.102570357676 0.03826359  0.00135705  0.0622840 0.0000
  4   -433.0486648695  -0.017936469596 0.01354130  0.00040794  0.0192457 0.0000
  5   -433.0505818648  -0.001916995277 0.00364136  0.00012267  0.0037935 0.0000
                      *** Initiating the SOSCF procedure ***
                           *** Shutting down DIIS ***
                      *** Re-Reading the Fockian *** 
                      *** Removing any level shift *** 
ITER      Energy       Delta-E        Grad      Rot      Max-DP    RMS-DP
  6   -433.05065480  -0.0000729341  0.000524  0.000524  0.001233  0.000044
               *** Restarting incremental Fock matrix formation ***
  7   -433.05067837  -0.0000235711  0.000238  0.000888  0.001002  0.000031
  8   -433.05067754   0.0000008313  0.000510  0.000640  0.000687  0.000015
  9   -433.05067959  -0.0000020472  0.000044  0.000101  0.000200  0.000007
 10   -433.05067958   0.0000000035  0.000048  0.000054  0.000084  0.000003
 11   -433.05067964  -0.0000000526  0.000014  0.000039  0.000069  0.000002
 12   -433.05067963   0.0000000019  0.000022  0.000025  0.000040  0.000001
                  ***Gradient check signals convergence***
              ***Rediagonalizing the Fockian in SOSCF/NRSCF***

               *****************************************************
               *                     SUCCESS                       *
               *           SCF CONVERGED AFTER  13 CYCLES          *
               *****************************************************

Setting up the final grid:

General Integration Accuracy     IntAcc      ...  4.670
Radial Grid Type                 RadialGrid  ... Gauss-Chebyshev
Angular Grid (max. acc.)         AngularGrid ... Lebedev-302
Angular grid pruning method      GridPruning ... 3 (G Style)
Weight generation scheme         WeightScheme... Becke
Basis function cutoff            BFCut       ...    1.0000e-11
Integration weight cutoff        WCut        ...    1.0000e-14
Grids for H and He will be reduced by one unit

# of grid points (after initial pruning)     ...  73454 (   0.0 sec)
# of grid points (after weights+screening)   ...  68147 (   0.1 sec)
nearest neighbour list constructed           ...    0.0 sec
Grid point re-assignment to atoms done       ...    0.0 sec
Grid point division into batches done        ...    0.3 sec
Reduced shell lists constructed in    0.4 sec

Total number of grid points                  ...    68147
Total number of batches                      ...     1073
Average number of points per batch           ...       63
Average number of grid points per atom       ...     4543
Average number of shells per batch           ...    49.98 (72.44%)
Average number of basis functions per batch  ...   103.28 (70.26%)
Average number of large shells per batch     ...    38.18 (76.38%)
Average number of large basis fcns per batch ...    77.08 (74.63%)
Maximum spatial batch extension              ...  11.22, 10.68, 16.56 au
Average spatial batch extension              ...   0.23,  0.23,  0.28 au

Final grid set up in    0.6 sec
Final integration                            ... done (   0.2 sec)
Change in XC energy                          ...     0.000188708
Integrated number of electrons               ...    62.000030766
Previous integrated no of electrons          ...    62.006163019
Old exchange energy                            =    -10.864879190 Eh
New exchange energy                            =    -10.864393921 Eh
Exchange energy change after final integration =      0.000485269 Eh
Total energy after final integration           =   -433.050005665 Eh
Final COS-X integration done in                =     1.543 sec

----------------
TOTAL SCF ENERGY
----------------

Total Energy       :         -433.05000566 Eh          -11783.88974 eV

Components:
Nuclear Repulsion  :          358.63107527 Eh            9758.84769 eV
Electronic Energy  :         -791.68108094 Eh          -21542.73742 eV
One Electron Energy:        -1300.94969309 Eh          -35400.64088 eV
Two Electron Energy:          509.26861215 Eh           13857.90346 eV

Virial components:
Potential Energy   :         -863.71631862 Eh          -23502.91589 eV
Kinetic Energy     :          430.66631295 Eh           11719.02616 eV
Virial Ratio       :            2.00553489


DFT components:
N(Alpha)           :       31.000015383240 electrons
N(Beta)            :       31.000015383240 electrons
N(Total)           :       62.000030766480 electrons
E(X)               :      -43.241872804613 Eh       
E(C)               :       -2.519876240760 Eh       
E(XC)              :      -45.761749045373 Eh       

---------------
SCF CONVERGENCE
---------------

  Last Energy change         ...   -8.5467e-09  Tolerance :   1.0000e-08
  Last MAX-Density change    ...    9.8114e-14  Tolerance :   1.0000e-07
  Last RMS-Density change    ...    9.4348e-16  Tolerance :   5.0000e-09
  Last Orbital Gradient      ...    1.9808e-06  Tolerance :   1.0000e-05
  Last Orbital Rotation      ...    3.9336e-06  Tolerance :   1.0000e-05

             **** THE GBW FILE WAS UPDATED (AT-v/e/frag_03_c00001.gbw) ****
             **** DENSITY FILE WAS UPDATED (AT-v/e/frag_03_c00001.scfp.tmp) ****
             **** ENERGY FILE WAS UPDATED (AT-v/e/frag_03_c00001.en.tmp) ****
----------------
ORBITAL ENERGIES
----------------

  NO   OCC          E(Eh)            E(eV) 
   0   2.0000     -19.141866      -520.8767 
   1   2.0000     -19.124837      -520.4133 
   2   2.0000     -14.361011      -390.7830 
   3   2.0000     -14.335163      -390.0796 
   4   2.0000     -14.303414      -389.2157 
   5   2.0000     -10.311462      -280.5892 
   6   2.0000     -10.297556      -280.2107 
   7   2.0000     -10.263209      -279.2761 
   8   2.0000      -1.063475       -28.9386 
   9   2.0000      -1.039544       -28.2874 
  10   2.0000      -0.947950       -25.7950 
  11   2.0000      -0.935845       -25.4656 
  12   2.0000      -0.854023       -23.2392 
  13   2.0000      -0.664854       -18.0916 
  14   2.0000      -0.639755       -17.4086 
  15   2.0000      -0.605661       -16.4809 
  16   2.0000      -0.551735       -15.0135 
  17   2.0000      -0.529187       -14.3999 
  18   2.0000      -0.496301       -13.5050 
  19   2.0000      -0.458026       -12.4635 
  20   2.0000      -0.448252       -12.1976 
  21   2.0000      -0.444826       -12.1043 
  22   2.0000      -0.436499       -11.8777 
  23   2.0000      -0.419316       -11.4102 
  24   2.0000      -0.383328       -10.4309 
  25   2.0000      -0.375412       -10.2155 
  26   2.0000      -0.306258        -8.3337 
  27   2.0000      -0.282791        -7.6951 
  28   2.0000      -0.271798        -7.3960 
  29   2.0000      -0.258127        -7.0240 
  30   2.0000      -0.245520        -6.6809 
  31   0.0000      -0.032959        -0.8969 
  32   0.0000       0.022330         0.6076 
  33   0.0000       0.040293         1.0964 
  34   0.0000       0.051900         1.4123 
  35   0.0000       0.072127         1.9627 
  36   0.0000       0.091209         2.4819 
  37   0.0000       0.122636         3.3371 
  38   0.0000       0.125349         3.4109 
  39   0.0000       0.188171         5.1204 
  40   0.0000       0.220342         5.9958 
  41   0.0000       0.230607         6.2751 
  42   0.0000       0.280926         7.6444 
  43   0.0000       0.295131         8.0309 
  44   0.0000       0.333316         9.0700 
  45   0.0000       0.338697         9.2164 
  46   0.0000       0.386967        10.5299 
  47   0.0000       0.413225        11.2444 
  48   0.0000       0.432367        11.7653 
  49   0.0000       0.454181        12.3589 
  50   0.0000       0.472005        12.8439 
  51   0.0000       0.480618        13.0783 
  52   0.0000       0.491570        13.3763 
  53   0.0000       0.514002        13.9867 
  54   0.0000       0.539226        14.6731 
  55   0.0000       0.555428        15.1140 
  56   0.0000       0.566194        15.4069 
  57   0.0000       0.622880        16.9494 
  58   0.0000       0.632049        17.1989 
  59   0.0000       0.641481        17.4556 
  60   0.0000       0.663021        18.0417 
  61   0.0000       0.677763        18.4429 
  62   0.0000       0.706082        19.2135 
  63   0.0000       0.724263        19.7082 
  64   0.0000       0.747256        20.3339 
  65   0.0000       0.754606        20.5339 
  66   0.0000       0.787350        21.4249 
  67   0.0000       0.841611        22.9014 
  68   0.0000       0.858076        23.3494 
  69   0.0000       0.867793        23.6138 
  70   0.0000       0.883988        24.0545 
  71   0.0000       0.902202        24.5502 
  72   0.0000       0.925861        25.1940 
  73   0.0000       0.942934        25.6585 
  74   0.0000       0.971509        26.4361 
  75   0.0000       1.006375        27.3849 
  76   0.0000       1.030820        28.0500 
  77   0.0000       1.058854        28.8129 
  78   0.0000       1.075374        29.2624 
  79   0.0000       1.095660        29.8144 
  80   0.0000       1.123810        30.5804 
  81   0.0000       1.131962        30.8022 
  82   0.0000       1.145991        31.1840 
  83   0.0000       1.189632        32.3715 
  84   0.0000       1.240255        33.7491 
  85   0.0000       1.253910        34.1206 
  86   0.0000       1.277333        34.7580 
  87   0.0000       1.301137        35.4057 
  88   0.0000       1.311764        35.6949 
  89   0.0000       1.328054        36.1382 
  90   0.0000       1.348260        36.6880 
  91   0.0000       1.367115        37.2011 
  92   0.0000       1.480179        40.2777 
  93   0.0000       1.481439        40.3120 
  94   0.0000       1.524778        41.4913 
  95   0.0000       1.534510        41.7561 
  96   0.0000       1.537294        41.8319 
  97   0.0000       1.570133        42.7255 
  98   0.0000       1.619480        44.0683 
  99   0.0000       1.622952        44.1628 
 100   0.0000       1.645196        44.7681 
 101   0.0000       1.689278        45.9676 
 102   0.0000       1.699465        46.2448 
 103   0.0000       1.705287        46.4032 
 104   0.0000       1.707953        46.4758 
 105   0.0000       1.727651        47.0118 
 106   0.0000       1.752181        47.6793 
 107   0.0000       1.787253        48.6336 
 108   0.0000       1.809797        49.2471 
 109   0.0000       1.887700        51.3669 
 110   0.0000       1.898258        51.6542 
 111   0.0000       1.923257        52.3345 
 112   0.0000       1.982759        53.9536 
 113   0.0000       2.046860        55.6979 
 114   0.0000       2.076488        56.5041 
 115   0.0000       2.118350        57.6432 
 116   0.0000       2.156102        58.6705 
 117   0.0000       2.214279        60.2536 
 118   0.0000       2.238444        60.9112 
 119   0.0000       2.261895        61.5493 
 120   0.0000       2.290703        62.3332 
 121   0.0000       2.301385        62.6239 
 122   0.0000       2.336838        63.5886 
 123   0.0000       2.349220        63.9255 
 124   0.0000       2.383534        64.8593 
 125   0.0000       2.455111        66.8070 
 126   0.0000       2.509036        68.2744 
 127   0.0000       2.551237        69.4227 
 128   0.0000       2.587896        70.4202 
 129   0.0000       2.613910        71.1281 
 130   0.0000       2.658270        72.3352 
 131   0.0000       2.683831        73.0307 
 132   0.0000       2.694519        73.3216 
 133   0.0000       2.703366        73.5623 
 134   0.0000       2.739259        74.5390 
 135   0.0000       2.825337        76.8813 
 136   0.0000       2.877408        78.2982 
 137   0.0000       2.920404        79.4682 
 138   0.0000       3.015039        82.0434 
 139   0.0000       3.038114        82.6713 
 140   0.0000       3.091654        84.1282 
 141   0.0000       3.247654        88.3732 
 142   0.0000       3.320883        90.3658 
 143   0.0000       3.415660        92.9448 
 144   0.0000       3.439527        93.5943 
 145   0.0000       3.475496        94.5730 
 146   0.0000       3.504632        95.3659 
-------
TIMINGS
-------

Total SCF time: 0 days 0 hours 0 min 16 sec 

Total time                  ....      16.635 sec
Sum of individual times     ....      16.567 sec  ( 99.6%)

Fock matrix formation       ....      15.202 sec  ( 91.4%)
  Split-RI-J                ....       2.920 sec  ( 19.2% of F)
  Chain of spheres X        ....      11.095 sec  ( 73.0% of F)
  COS-X 1 center corr.      ....       0.000 sec  (  0.0% of F)
  XC integration            ....       1.136 sec  (  7.5% of F)
    Basis function eval.    ....       0.426 sec  ( 37.5% of XC)
    Density eval.           ....       0.181 sec  ( 15.9% of XC)
    XC-Functional eval.     ....       0.053 sec  (  4.7% of XC)
    XC-Potential eval.      ....       0.364 sec  ( 32.1% of XC)
Diagonalization             ....       0.042 sec  (  0.3%)
Density matrix formation    ....       0.015 sec  (  0.1%)
Population analysis         ....       0.000 sec  (  0.0%)
Initial guess               ....       0.239 sec  (  1.4%)
Orbital Transformation      ....       0.000 sec  (  0.0%)
Orbital Orthonormalization  ....       0.000 sec  (  0.0%)
DIIS solution               ....       0.013 sec  (  0.1%)
SOSCF solution              ....       0.090 sec  (  0.5%)
Grid generation             ....       0.966 sec  (  5.8%)


-------------------------------------------------------------------------------
                          DFT DISPERSION CORRECTION                            
                                                                               
                              DFTD3 V3.1  Rev 1                                
                          USING Becke-Johnson damping                          
-------------------------------------------------------------------------------
The B3LYP functional is recognized
Active option DFTDOPT                   ...         4   

molecular C6(AA) [au] = 2186.043578 


            DFT-D V3
 parameters
 s6 scaling factor         :     1.0000 
 a1 scaling factor         :     0.3981 
 s8 scaling factor         :     1.9889 
 a2 scaling factor         :     4.4211 
 ad hoc parameters k1-k3   :    16.0000     1.3333    -4.0000 

 Edisp/kcal,au: -12.195119594495  -0.019434158045 
 E6   /kcal   :  -6.043054359 
 E8   /kcal   :  -6.152065236 
 % E8         :  50.446944683 

-------------------------   ----------------
Dispersion correction           -0.019434158
-------------------------   ----------------


-------------------------   --------------------
FINAL SINGLE POINT ENERGY      -433.069439822985
-------------------------   --------------------



           ************************************************************
           *        Program running with 6 parallel MPI-processes     *
           *              working on a common directory               *
           ************************************************************
------------------------------------------------------------------------------
                         ORCA SCF GRADIENT CALCULATION
------------------------------------------------------------------------------

Gradient of the Kohn-Sham DFT energy:
Kohn-Sham wavefunction type      ... RKS
Hartree-Fock exchange scaling    ...    0.200
Number of operators              ...    1
Number of atoms                  ...   15
Basis set dimensions             ...  147
Integral neglect threshold       ... 2.5e-11
Integral primitive cutoff        ... 2.5e-12

Nuclear repulsion gradient       ... done
One Electron Gradient            ... done
Pre-screening matrix             ... done
RI-J gradient                    ... done
COSX-gradient                    ... done
Exchange-correlation gradient    ... done
Dispersion correction            ... done

------------------
CARTESIAN GRADIENT
------------------

   1   C   :   -0.008352397    0.000096512   -0.005528203
   2   N   :    0.006415587    0.009923450    0.000786878
   3   N   :   -0.013138802   -0.011167266    0.000213999
   4   C   :   -0.001622310   -0.024634790    0.001909193
   5   O   :    0.005849003    0.018252057   -0.000850304
   6   N   :    0.014555503    0.008704639    0.000276369
   7   C   :   -0.005687830   -0.001461468   -0.000279925
   8   O   :    0.007893505   -0.003125015    0.000263864
   9   H   :   -0.000861842   -0.000190014   -0.000144161
  10   H   :   -0.006296680    0.000138082    0.002301779
  11   H   :    0.003207892    0.000013038    0.001632830
  12   H   :    0.007314750    0.001959854    0.003122855
  13   H   :    0.009649058    0.001742697   -0.000082449
  14   H   :   -0.027119011   -0.000028289   -0.001069228
  15   H   :    0.007707251    0.001252636   -0.000403864

Difference to translation invariance:
           :   -0.0004863235    0.0014761211    0.0021496326

Norm of the cartesian gradient     ...    0.0541599067
RMS gradient                       ...    0.0080736822
MAX gradient                       ...    0.0271190114

-------
TIMINGS
-------

Total SCF gradient time            ...        3.709 sec

One electron gradient       ....       0.055 sec  (  1.5%)
Prescreening matrices       ....       0.091 sec  (  2.4%)
RI-J Coulomb gradient       ....       0.559 sec  ( 15.1%)
COSX gradient               ....       1.623 sec  ( 43.7%)
XC gradient                 ....       0.899 sec  ( 24.2%)
------------------------------------------------------------------------------
                         ORCA GEOMETRY RELAXATION STEP
------------------------------------------------------------------------------

Reading the OPT-File                    .... done
Getting information on internals        .... done
Copying old internal coords+grads       .... done
Making the new internal coordinates     .... (new redundants).... done
Validating the new internal coordinates .... (new redundants).... done
Calculating the B-matrix                .... done
Calculating the G,G- and P matrices     .... done
Transforming gradient to internals      .... done
Projecting the internal gradient        .... done
Number of atoms                         ....  15
Number of internal coordinates          ....  61
Current Energy                          ....  -433.069439823 Eh
Current gradient norm                   ....     0.054159907 Eh/bohr
Maximum allowed component of the step   ....  0.300
Current trust radius                    ....  0.300
Evaluating the initial hessian          ....  (Almloef) done
Projecting the Hessian                  .... done
Forming the augmented Hessian           .... done
Diagonalizing the augmented Hessian     .... done
Last element of RFO vector              ....  0.966941064
Lowest eigenvalues of augmented Hessian:
 -0.007507071  0.015500541  0.028419076  0.030191642  0.030196979
Length of the computed step             ....  0.263718202
The final length of the internal step   ....  0.263718202
Converting the step to cartesian space:
 Initial RMS(Int)=    0.0337656558
Transforming coordinates:
 Iter   0:  RMS(Cart)=    0.0688921907 RMS(Int)=    0.0337918921
 Iter   1:  RMS(Cart)=    0.0004519625 RMS(Int)=    0.0003354509
 Iter   2:  RMS(Cart)=    0.0000116161 RMS(Int)=    0.0000146031
 Iter   3:  RMS(Cart)=    0.0000004495 RMS(Int)=    0.0000011686
 Iter   4:  RMS(Cart)=    0.0000000192 RMS(Int)=    0.0000001062
done
Storing new coordinates                 .... done

                                .--------------------.
          ----------------------|Geometry convergence|-------------------------
          Item                value                   Tolerance       Converged
          ---------------------------------------------------------------------
          RMS gradient        0.0064654801            0.0020000000      NO
          MAX gradient        0.0328338590            0.0030000000      NO
          RMS step            0.0337656558            0.0200000000      NO
          MAX step            0.1602966875            0.0300000000      NO
          ........................................................
          Max(Bonds)      0.0848      Max(Angles)    1.63
          Max(Dihed)        3.45      Max(Improp)    0.00
          ---------------------------------------------------------------------

The optimization has not yet converged - more geometry cycles are needed


    ---------------------------------------------------------------------------
                         Redundant Internal Coordinates
                            (Angstroem and degrees)

        Definition                    Value    dE/dq     Step     New-Value
    ----------------------------------------------------------------------------
     1. B(N   1,C   0)                1.3483 -0.012941  0.0102    1.3586   
     2. B(N   2,C   0)                1.2857 -0.007821  0.0053    1.2910   
     3. B(O   4,C   3)                1.2235  0.018834 -0.0096    1.2139   
     4. B(N   5,C   3)                1.3660 -0.011204  0.0096    1.3755   
     5. B(C   6,N   5)                1.3656  0.001199 -0.0008    1.3648   
     6. B(O   7,C   6)                1.2261  0.003808 -0.0022    1.2239   
     7. B(H   8,C   0)                1.1036 -0.000844  0.0013    1.1049   
     8. B(H   9,N   1)                1.0120 -0.002035  0.0025    1.0144   
     9. B(H  10,O   7)                1.8102 -0.005653  0.0848    1.8950   
    10. B(H  10,N   1)                1.0252 -0.008691  0.0101    1.0353   
    11. B(H  11,N   2)                1.0308  0.006442 -0.0083    1.0224   
    12. B(H  12,C   3)                1.1025 -0.009738  0.0147    1.1171   
    13. B(H  13,N   2)                1.6868 -0.005731  0.0785    1.7653   
    14. B(H  13,N   5)                1.0259 -0.032834  0.0427    1.0687   
    15. B(H  14,C   6)                1.1023 -0.007715  0.0116    1.1139   
    16. A(N   1,C   0,N   2)          123.24  0.001408   -0.15    123.09   
    17. A(N   1,C   0,H   8)          114.19 -0.000981    0.11    114.30   
    18. A(N   2,C   0,H   8)          122.57 -0.000409    0.02    122.59   
    19. A(H   9,N   1,H  10)          112.36 -0.003045    1.14    113.49   
    20. A(C   0,N   1,H  10)          114.94 -0.003122    0.60    115.54   
    21. A(C   0,N   1,H   9)          117.85  0.004498   -0.58    117.27   
    22. A(C   0,N   2,H  11)          108.64 -0.007189    1.13    109.78   
    23. A(H  11,N   2,H  13)          125.27  0.001353   -0.29    124.97   
    24. A(C   0,N   2,H  13)          126.07  0.005812   -0.82    125.25   
    25. A(N   5,C   3,H  12)          113.50 -0.001307    0.16    113.67   
    26. A(O   4,C   3,H  12)          121.83 -0.002588    0.34    122.17   
    27. A(O   4,C   3,N   5)          124.66  0.003894   -0.50    124.16   
    28. A(C   6,N   5,H  13)          117.31 -0.002882    0.51    117.82   
    29. A(C   3,N   5,C   6)          125.23  0.011146   -1.63    123.60   
    30. A(C   3,N   5,H  13)          117.46 -0.008263    1.12    118.58   
    31. A(N   5,C   6,H  14)          113.73 -0.001056    0.18    113.91   
    32. A(N   5,C   6,O   7)          124.24 -0.000732    0.07    124.31   
    33. A(O   7,C   6,H  14)          122.04  0.001787   -0.25    121.79   
    34. A(C   6,O   7,H  10)          123.61 -0.001397   -0.08    123.53   
    35. A(N   1,H  10,O   7)          173.70 -0.001441   -0.01    173.69   
    36. A(N   2,H  13,N   5)          173.63  0.002461   -0.37    173.26   
    37. D(H  10,N   1,C   0,N   2)    -13.53  0.000840   -1.50    -15.03   
    38. D(H   9,N   1,C   0,N   2)   -149.59  0.004304   -3.45   -153.03   
    39. D(H  10,N   1,C   0,H   8)    167.14 -0.000883    0.44    167.58   
    40. D(H   9,N   1,C   0,H   8)     31.08  0.002581   -1.50     29.58   
    41. D(H  11,N   2,C   0,N   1)   -178.90 -0.001878    2.52   -176.38   
    42. D(H  13,N   2,C   0,N   1)      2.73 -0.000992    1.69      4.42   
    43. D(H  11,N   2,C   0,H   8)      0.37 -0.000015    0.41      0.79   
    44. D(H  13,N   2,C   0,H   8)   -177.99  0.000871   -0.42   -178.41   
    45. D(H  13,N   5,C   3,H  12)    179.77  0.000078    0.09    179.86   
    46. D(H  13,N   5,C   3,O   4)     -0.28 -0.000112    0.38      0.10   
    47. D(C   6,N   5,C   3,H  12)      0.07 -0.000206    0.10      0.17   
    48. D(C   6,N   5,C   3,O   4)   -179.99 -0.000396    0.39   -179.59   
    49. D(H  14,C   6,N   5,C   3)     -0.06  0.000085   -0.12     -0.18   
    50. D(O   7,C   6,N   5,H  13)      0.28  0.000160   -0.29     -0.01   
    51. D(O   7,C   6,N   5,C   3)    179.99  0.000430   -0.31    179.68   
    52. D(H  14,C   6,N   5,H  13)   -179.77 -0.000185   -0.10   -179.87   
    53. D(H  10,O   7,C   6,H  14)    169.92 -0.000516    0.18    170.10   
    54. D(H  10,O   7,C   6,N   5)    -10.13 -0.000890    0.38     -9.75   
    55. D(N   1,H  10,O   7,C   6)     16.29 -0.000259    1.40     17.70   
    56. D(O   7,H  10,N   1,H   9)    143.93 -0.000018    0.59    144.51   
    57. D(O   7,H  10,N   1,C   0)      5.49 -0.000048   -0.51      4.97   
    58. D(N   2,H  13,N   5,C   6)    -17.80  0.000902   -0.03    -17.83   
    59. D(N   2,H  13,N   5,C   3)    162.47  0.000595   -0.01    162.46   
    60. D(N   5,H  13,N   2,H  11)   -150.64  0.001493   -1.40   -152.03   
    61. D(N   5,H  13,N   2,C   0)     27.46  0.000352   -0.41     27.06   
    ----------------------------------------------------------------------------

         *************************************************************
         *                GEOMETRY OPTIMIZATION CYCLE   2            *
         *************************************************************
---------------------------------
CARTESIAN COORDINATES (ANGSTROEM)
---------------------------------
  C      1.658292   -0.750676    0.040511
  N      1.070600   -1.956591   -0.174229
  N      0.996210    0.356363    0.094204
  C     -2.522344    1.650445   -0.090411
  O     -1.997494    2.741107   -0.183405
  N     -1.829894    0.466409    0.012887
  C     -2.431894   -0.754710    0.108847
  O     -1.828709   -1.816099    0.195688
  H      2.759583   -0.789700    0.120706
  H      1.539910   -2.775111    0.198404
  H      0.042627   -1.979828   -0.053826
  H      1.642551    1.140935    0.203872
  H     -3.632144    1.522818   -0.085720
  H     -0.761647    0.497204    0.013768
  H     -3.544947   -0.711369    0.099506

----------------------------
CARTESIAN COORDINATES (A.U.)
----------------------------
  NO LB      ZA    FRAG     MASS         X           Y           Z
   0 C     6.0000    0    12.011    3.133718   -1.418571    0.076554
   1 N     7.0000    0    14.007    2.023140   -3.697421   -0.329245
   2 N     7.0000    0    14.007    1.882563    0.673429    0.178019
   3 C     6.0000    0    12.011   -4.766539    3.118888   -0.170853
   4 O     8.0000    0    15.999   -3.774716    5.179942   -0.346585
   5 N     7.0000    0    14.007   -3.457999    0.881385    0.024353
   6 C     6.0000    0    12.011   -4.595613   -1.426196    0.205690
   7 O     8.0000    0    15.999   -3.455759   -3.431929    0.369796
   8 H     1.0000    0     1.008    5.214857   -1.492317    0.228102
   9 H     1.0000    0     1.008    2.910009   -5.244199    0.374929
  10 H     1.0000    0     1.008    0.080552   -3.741332   -0.101717
  11 H     1.0000    0     1.008    3.103972    2.156056    0.385261
  12 H     1.0000    0     1.008   -6.863757    2.877710   -0.161987
  13 H     1.0000    0     1.008   -1.439305    0.939580    0.026018
  14 H     1.0000    0     1.008   -6.698979   -1.344293    0.188038

--------------------------------
INTERNAL COORDINATES (ANGSTROEM)
--------------------------------
 C      0   0   0     0.000000000000     0.00000000     0.00000000
 N      1   0   0     1.358575521628     0.00000000     0.00000000
 N      1   2   0     1.291034909056   123.08355979     0.00000000
 C      3   1   2     3.753524605920   140.74262324     1.90918657
 O      4   3   1     1.213944284289    84.73478860   191.92009531
 N      4   3   1     1.375535269701    39.43453582    10.59510730
 C      6   4   3     1.364823544285   123.59964676   178.81376106
 O      7   6   4     1.223894900936   124.29931820   179.68281368
 H      1   2   3     1.104896459159   114.28590141   182.61443685
 H      2   1   3     1.014437098918   117.25929424   206.96695419
 H      2   1   3     1.035261070676   115.53579688   344.95643150
 H      3   1   2     1.022417686706   109.77152225   183.61670212
 H      4   3   1     1.117124291867   153.08254300    13.34275461
 H      6   4   3     1.068691316849   118.58433685   358.49984024
 H      7   6   4     1.113935788674   113.91191568   359.82176002

---------------------------
INTERNAL COORDINATES (A.U.)
---------------------------
 C      0   0   0     0.000000000000     0.00000000     0.00000000
 N      1   0   0     2.567335668127     0.00000000     0.00000000
 N      1   2   0     2.439702407448   123.08355979     0.00000000
 C      3   1   2     7.093133542123   140.74262324     1.90918657
 O      4   3   1     2.294022239145    84.73478860   191.92009531
 N      4   3   1     2.599384947285    39.43453582    10.59510730
 C      6   4   3     2.579142719826   123.59964676   178.81376106
 O      7   6   4     2.312826179473   124.29931820   179.68281368
 H      1   2   3     2.087951714149   114.28590141   182.61443685
 H      2   1   3     1.917008297045   117.25929424   206.96695419
 H      2   1   3     1.956359900689   115.53579688   344.95643150
 H      3   1   2     1.932089422353   109.77152225   183.61670212
 H      4   3   1     2.111058969179   153.08254300    13.34275461
 H      6   4   3     2.019533910545   118.58433685   358.49984024
 H      7   6   4     2.105033571367   113.91191568   359.82176002



           ************************************************************
           *        Program running with 6 parallel MPI-processes     *
           *              working on a common directory               *
           ************************************************************
 One Electron integrals                  ... done
 Pre-screening matrix                    ... done


           ************************************************************
           *        Program running with 6 parallel MPI-processes     *
           *              working on a common directory               *
           ************************************************************

Diagonalization of the overlap matrix:
Smallest eigenvalue                        ... 5.244e-03
Time for diagonalization                   ...    0.005 sec
Threshold for overlap eigenvalues          ... 1.000e-08
Number of eigenvalues below threshold      ... 0
Time for construction of square roots      ...    0.002 sec
Total time needed                          ...    0.008 sec

-------------------
DFT GRID GENERATION
-------------------

General Integration Accuracy     IntAcc      ...  4.340
Radial Grid Type                 RadialGrid  ... Gauss-Chebyshev
Angular Grid (max. acc.)         AngularGrid ... Lebedev-110
Angular grid pruning method      GridPruning ... 3 (G Style)
Weight generation scheme         WeightScheme... Becke
Basis function cutoff            BFCut       ...    1.0000e-11
Integration weight cutoff        WCut        ...    1.0000e-14
Grids for H and He will be reduced by one unit

# of grid points (after initial pruning)     ...  19064 (   0.0 sec)
# of grid points (after weights+screening)   ...  17928 (   0.0 sec)
nearest neighbour list constructed           ...    0.0 sec
Grid point re-assignment to atoms done       ...    0.0 sec
Grid point division into batches done        ...    0.0 sec
Reduced shell lists constructed in    0.0 sec

Total number of grid points                  ...    17928
Total number of batches                      ...      287
Average number of points per batch           ...       62
Average number of grid points per atom       ...     1195
Average number of shells per batch           ...    51.96 (75.30%)
Average number of basis functions per batch  ...   108.12 (73.55%)
Average number of large shells per batch     ...    40.06 (77.10%)
Average number of large basis fcns per batch ...    81.16 (75.07%)
Maximum spatial batch extension              ...   9.74,  8.88, 16.83 au
Average spatial batch extension              ...   0.32,  0.33,  0.44 au

Time for grid setup =    0.090 sec

--------------------
COSX GRID GENERATION
--------------------

General Integration Accuracy     IntAcc      ...  3.340
Radial Grid Type                 RadialGrid  ... Gauss-Chebyshev
Angular Grid (max. acc.)         AngularGrid ... Lebedev-50
Angular grid pruning method      GridPruning ... 3 (G Style)
Weight generation scheme         WeightScheme... Becke
Basis function cutoff            BFCut       ...    1.0000e-11
Integration weight cutoff        WCut        ...    1.0000e-14
Grids for H and He will be reduced by one unit

# of grid points (after initial pruning)     ...   6838 (   0.0 sec)
# of grid points (after weights+screening)   ...   6469 (   0.0 sec)
nearest neighbour list constructed           ...    0.0 sec
Grid point re-assignment to atoms done       ...    0.0 sec
Grid point division into batches done        ...    0.0 sec
Reduced shell lists constructed in    0.0 sec

Total number of grid points                  ...     6469
Total number of batches                      ...      108
Average number of points per batch           ...       59
Average number of grid points per atom       ...      431
Average number of shells per batch           ...    52.42 (75.97%)
Average number of basis functions per batch  ...   109.05 (74.19%)
Average number of large shells per batch     ...    40.32 (76.91%)
Average number of large basis fcns per batch ...    81.89 (75.10%)
Maximum spatial batch extension              ...   4.42,  5.39, 16.07 au
Average spatial batch extension              ...   0.36,  0.40,  0.68 au

Overlap Fitting                  UseSFitting ... on
Constructing numerical overlap ... done (      0.0 sec)
Inverting numerical overlap    ... done (      0.0 sec)
Obtaining analytic overlap     ... done (      0.0 sec)
Final contraction and storage  ... done (      0.0 sec)


General Integration Accuracy     IntAcc      ...  3.670
Radial Grid Type                 RadialGrid  ... Gauss-Chebyshev
Angular Grid (max. acc.)         AngularGrid ... Lebedev-50
Angular grid pruning method      GridPruning ... 3 (G Style)
Weight generation scheme         WeightScheme... Becke
Basis function cutoff            BFCut       ...    1.0000e-11
Integration weight cutoff        WCut        ...    1.0000e-14
Grids for H and He will be reduced by one unit

# of grid points (after initial pruning)     ...   8748 (   0.0 sec)
# of grid points (after weights+screening)   ...   8254 (   0.0 sec)
nearest neighbour list constructed           ...    0.0 sec
Grid point re-assignment to atoms done       ...    0.0 sec
Grid point division into batches done        ...    0.0 sec
Reduced shell lists constructed in    0.0 sec

Total number of grid points                  ...     8254
Total number of batches                      ...      136
Average number of points per batch           ...       60
Average number of grid points per atom       ...      550
Average number of shells per batch           ...    53.00 (76.81%)
Average number of basis functions per batch  ...   110.75 (75.34%)
Average number of large shells per batch     ...    40.50 (76.42%)
Average number of large basis fcns per batch ...    82.33 (74.34%)
Maximum spatial batch extension              ...   4.79,  6.11, 17.22 au
Average spatial batch extension              ...   0.34,  0.38,  0.63 au

Overlap Fitting                  UseSFitting ... on
Constructing numerical overlap ... done (      0.0 sec)
Inverting numerical overlap    ... done (      0.0 sec)
Obtaining analytic overlap     ... done (      0.0 sec)
Final contraction and storage  ... done (      0.0 sec)


General Integration Accuracy     IntAcc      ...  4.010
Radial Grid Type                 RadialGrid  ... Gauss-Chebyshev
Angular Grid (max. acc.)         AngularGrid ... Lebedev-110
Angular grid pruning method      GridPruning ... 3 (G Style)
Weight generation scheme         WeightScheme... Becke
Basis function cutoff            BFCut       ...    1.0000e-11
Integration weight cutoff        WCut        ...    1.0000e-14
Grids for H and He will be reduced by one unit

# of grid points (after initial pruning)     ...  16328 (   0.0 sec)
# of grid points (after weights+screening)   ...  15372 (   0.0 sec)
nearest neighbour list constructed           ...    0.0 sec
Grid point re-assignment to atoms done       ...    0.0 sec
Grid point division into batches done        ...    0.0 sec
Reduced shell lists constructed in    0.0 sec

Total number of grid points                  ...    15372
Total number of batches                      ...      248
Average number of points per batch           ...       61
Average number of grid points per atom       ...     1025
Average number of shells per batch           ...    51.63 (74.82%)
Average number of basis functions per batch  ...   107.35 (73.03%)
Average number of large shells per batch     ...    39.81 (77.12%)
Average number of large basis fcns per batch ...    80.42 (74.91%)
Maximum spatial batch extension              ...   9.55,  8.88, 16.20 au
Average spatial batch extension              ...   0.34,  0.35,  0.48 au

Overlap Fitting                  UseSFitting ... on
Constructing numerical overlap ... done (      0.0 sec)
Inverting numerical overlap    ... done (      0.0 sec)
Obtaining analytic overlap     ... done (      0.0 sec)
Final contraction and storage  ... done (      0.0 sec)

Time for X-Grid setup             =    0.282 sec
--------------
SCF ITERATIONS
--------------
ITER       Energy         Delta-E        Max-DP      RMS-DP      [F,P]     Damp
               ***  Starting incremental Fock matrix formation  ***
  0   -433.0526427460   0.000000000000 0.00668452  0.00015852  0.0137857 0.7000
                      *** Initiating the SOSCF procedure ***
                      *** Re-Reading the Fockian *** 
                      *** Removing any level shift *** 
ITER      Energy       Delta-E        Grad      Rot      Max-DP    RMS-DP
  1   -433.05317278  -0.0005300343  0.000719  0.000719  0.017891  0.000461
               *** Restarting incremental Fock matrix formation ***
  2   -433.05450114  -0.0013283561  0.000594  0.002085  0.002805  0.000104
  3   -433.05451021  -0.0000090747  0.001371  0.002418  0.002719  0.000062
  4   -433.05452975  -0.0000195347  0.000553  0.000894  0.001056  0.000037
  5   -433.05453273  -0.0000029864  0.000254  0.000305  0.000456  0.000016
  6   -433.05453468  -0.0000019519  0.000101  0.000160  0.000294  0.000008
  7   -433.05453483  -0.0000001460  0.000081  0.000116  0.000143  0.000005
  8   -433.05453497  -0.0000001362  0.000038  0.000069  0.000122  0.000003
  9   -433.05453494   0.0000000271  0.000042  0.000045  0.000093  0.000002
 10   -433.05453498  -0.0000000431  0.000008  0.000016  0.000024  0.000001
 11   -433.05453498   0.0000000022  0.000008  0.000013  0.000014  0.000000
                 **** Energy Check signals convergence ****
              ***Rediagonalizing the Fockian in SOSCF/NRSCF***

               *****************************************************
               *                     SUCCESS                       *
               *           SCF CONVERGED AFTER  12 CYCLES          *
               *****************************************************

Setting up the final grid:

General Integration Accuracy     IntAcc      ...  4.670
Radial Grid Type                 RadialGrid  ... Gauss-Chebyshev
Angular Grid (max. acc.)         AngularGrid ... Lebedev-302
Angular grid pruning method      GridPruning ... 3 (G Style)
Weight generation scheme         WeightScheme... Becke
Basis function cutoff            BFCut       ...    1.0000e-11
Integration weight cutoff        WCut        ...    1.0000e-14
Grids for H and He will be reduced by one unit

# of grid points (after initial pruning)     ...  73454 (   0.0 sec)
# of grid points (after weights+screening)   ...  68226 (   0.1 sec)
nearest neighbour list constructed           ...    0.0 sec
Grid point re-assignment to atoms done       ...    0.0 sec
Grid point division into batches done        ...    0.3 sec
Reduced shell lists constructed in    0.4 sec

Total number of grid points                  ...    68226
Total number of batches                      ...     1073
Average number of points per batch           ...       63
Average number of grid points per atom       ...     4548
Average number of shells per batch           ...    49.11 (71.18%)
Average number of basis functions per batch  ...   101.31 (68.92%)
Average number of large shells per batch     ...    37.52 (76.39%)
Average number of large basis fcns per batch ...    75.68 (74.70%)
Maximum spatial batch extension              ...  10.92, 10.60, 15.38 au
Average spatial batch extension              ...   0.23,  0.24,  0.28 au

Final grid set up in    0.5 sec
Final integration                            ... done (   0.2 sec)
Change in XC energy                          ...     0.000161561
Integrated number of electrons               ...    61.999917896
Previous integrated no of electrons          ...    62.005850421
Old exchange energy                            =    -10.855394443 Eh
New exchange energy                            =    -10.855004705 Eh
Exchange energy change after final integration =      0.000389738 Eh
Total energy after final integration           =   -433.053983681 Eh
Final COS-X integration done in                =     1.560 sec
Total Energy       :         -433.05398368 Eh          -11783.99798 eV
  Last Energy change         ...    8.7613e-10  Tolerance :   1.0000e-08
  Last MAX-Density change    ...    1.6415e-13  Tolerance :   1.0000e-07
             **** THE GBW FILE WAS UPDATED (AT-v/e/frag_03_c00001.gbw) ****
             **** DENSITY FILE WAS UPDATED (AT-v/e/frag_03_c00001.scfp.tmp) ****
             **** ENERGY FILE WAS UPDATED (AT-v/e/frag_03_c00001.en.tmp) ****
Total SCF time: 0 days 0 hours 0 min 15 sec 


-------------------------------------------------------------------------------
                          DFT DISPERSION CORRECTION                            
                                                                               
                              DFTD3 V3.1  Rev 1                                
                          USING Becke-Johnson damping                          
-------------------------------------------------------------------------------
-------------------------   ----------------
Dispersion correction           -0.018945324
-------------------------   ----------------


-------------------------   --------------------
FINAL SINGLE POINT ENERGY      -433.072929004563
-------------------------   --------------------



           ************************************************************
           *        Program running with 6 parallel MPI-processes     *
           *              working on a common directory               *
           ************************************************************
------------------------------------------------------------------------------
                         ORCA SCF GRADIENT CALCULATION
------------------------------------------------------------------------------

Gradient of the Kohn-Sham DFT energy:
Kohn-Sham wavefunction type      ... RKS
Hartree-Fock exchange scaling    ...    0.200
Number of operators              ...    1
Number of atoms                  ...   15
Basis set dimensions             ...  147
Integral neglect threshold       ... 2.5e-11
Integral primitive cutoff        ... 2.5e-12

Nuclear repulsion gradient       ... done
One Electron Gradient            ... done
Pre-screening matrix             ... done
RI-J gradient                    ... done
COSX-gradient                    ... done
Exchange-correlation gradient    ... done
Dispersion correction            ... done

------------------
CARTESIAN GRADIENT
------------------

   1   C   :   -0.000034010   -0.001546197   -0.000274891
   2   N   :    0.008695554    0.002511094   -0.003294094
   3   N   :   -0.003087093    0.001268501    0.001375665
   4   C   :    0.002831226   -0.010465081    0.001458122
   5   O   :    0.001990873    0.005752131   -0.000260159
   6   N   :   -0.010859921    0.003713539    0.000221733
   7   C   :   -0.001127792    0.000303553    0.000022094
   8   O   :    0.003754599   -0.000713824    0.000203360
   9   H   :    0.000364154    0.000402017   -0.000530111
  10   H   :   -0.003023938   -0.001133255    0.002187107
[...]
Basis function cutoff            BFCut       ...    1.0000e-11
Integration weight cutoff        WCut        ...    1.0000e-14
Grids for H and He will be reduced by one unit

# of grid points (after initial pruning)     ...   8748 (   0.0 sec)
# of grid points (after weights+screening)   ...   8267 (   0.0 sec)
nearest neighbour list constructed           ...    0.0 sec
Grid point re-assignment to atoms done       ...    0.0 sec
Grid point division into batches done        ...    0.0 sec
Reduced shell lists constructed in    0.0 sec

Total number of grid points                  ...     8267
Total number of batches                      ...      136
Average number of points per batch           ...       60
Average number of grid points per atom       ...      551
Average number of shells per batch           ...    53.04 (76.87%)
Average number of basis functions per batch  ...   110.54 (75.20%)
Average number of large shells per batch     ...    40.62 (76.59%)
Average number of large basis fcns per batch ...    82.46 (74.59%)
Maximum spatial batch extension              ...   4.79,  6.10, 17.41 au
Average spatial batch extension              ...   0.34,  0.38,  0.60 au

Overlap Fitting                  UseSFitting ... on
Constructing numerical overlap ... done (      0.0 sec)
Inverting numerical overlap    ... done (      0.0 sec)
Obtaining analytic overlap     ... done (      0.0 sec)
Final contraction and storage  ... done (      0.0 sec)


General Integration Accuracy     IntAcc      ...  4.010
Radial Grid Type                 RadialGrid  ... Gauss-Chebyshev
Angular Grid (max. acc.)         AngularGrid ... Lebedev-110
Angular grid pruning method      GridPruning ... 3 (G Style)
Weight generation scheme         WeightScheme... Becke
Basis function cutoff            BFCut       ...    1.0000e-11
Integration weight cutoff        WCut        ...    1.0000e-14
Grids for H and He will be reduced by one unit

# of grid points (after initial pruning)     ...  16328 (   0.0 sec)
# of grid points (after weights+screening)   ...  15394 (   0.0 sec)
nearest neighbour list constructed           ...    0.0 sec
Grid point re-assignment to atoms done       ...    0.0 sec
Grid point division into batches done        ...    0.0 sec
Reduced shell lists constructed in    0.0 sec

Total number of grid points                  ...    15394
Total number of batches                      ...      249
Average number of points per batch           ...       61
Average number of grid points per atom       ...     1026
Average number of shells per batch           ...    51.79 (75.06%)
Average number of basis functions per batch  ...   107.56 (73.17%)
Average number of large shells per batch     ...    40.09 (77.41%)
Average number of large basis fcns per batch ...    80.93 (75.24%)
Maximum spatial batch extension              ...   7.88,  8.63, 16.39 au
Average spatial batch extension              ...   0.33,  0.34,  0.51 au

Overlap Fitting                  UseSFitting ... on
Constructing numerical overlap ... done (      0.0 sec)
Inverting numerical overlap    ... done (      0.0 sec)
Obtaining analytic overlap     ... done (      0.0 sec)
Final contraction and storage  ... done (      0.0 sec)

Time for X-Grid setup             =    0.282 sec
--------------
SCF ITERATIONS
--------------
ITER       Energy         Delta-E        Max-DP      RMS-DP      [F,P]     Damp
               ***  Starting incremental Fock matrix formation  ***
                      *** Initiating the SOSCF procedure ***
                      *** Re-Reading the Fockian *** 
                      *** Removing any level shift *** 
ITER      Energy       Delta-E        Grad      Rot      Max-DP    RMS-DP
  0   -433.05521428 -433.0552142784  0.001133  0.001133  0.003651  0.000081
               *** Restarting incremental Fock matrix formation ***
  1   -433.05528627  -0.0000719920  0.000467  0.001175  0.001501  0.000035
  2   -433.05529276  -0.0000064887  0.000200  0.000507  0.001045  0.000022
  3   -433.05529128   0.0000014783  0.000390  0.000346  0.000684  0.000015
  4   -433.05529345  -0.0000021644  0.000018  0.000043  0.000086  0.000002
  5   -433.05529345  -0.0000000046  0.000030  0.000029  0.000066  0.000001
  6   -433.05529346  -0.0000000114  0.000008  0.000023  0.000023  0.000001
  7   -433.05529346   0.0000000014  0.000010  0.000014  0.000012  0.000000
                  ***Gradient check signals convergence***
              ***Rediagonalizing the Fockian in SOSCF/NRSCF***

               *****************************************************
               *                     SUCCESS                       *
               *           SCF CONVERGED AFTER   8 CYCLES          *
               *****************************************************

Setting up the final grid:

General Integration Accuracy     IntAcc      ...  4.670
Radial Grid Type                 RadialGrid  ... Gauss-Chebyshev
Angular Grid (max. acc.)         AngularGrid ... Lebedev-302
Angular grid pruning method      GridPruning ... 3 (G Style)
Weight generation scheme         WeightScheme... Becke
Basis function cutoff            BFCut       ...    1.0000e-11
Integration weight cutoff        WCut        ...    1.0000e-14
Grids for H and He will be reduced by one unit

# of grid points (after initial pruning)     ...  73454 (   0.0 sec)
# of grid points (after weights+screening)   ...  68230 (   0.1 sec)
nearest neighbour list constructed           ...    0.0 sec
Grid point re-assignment to atoms done       ...    0.0 sec
Grid point division into batches done        ...    0.3 sec
Reduced shell lists constructed in    0.4 sec

Total number of grid points                  ...    68230
Total number of batches                      ...     1073
Average number of points per batch           ...       63
Average number of grid points per atom       ...     4549
Average number of shells per batch           ...    49.14 (71.22%)
Average number of basis functions per batch  ...   101.41 (68.99%)
Average number of large shells per batch     ...    37.73 (76.77%)
Average number of large basis fcns per batch ...    76.28 (75.22%)
Maximum spatial batch extension              ...   9.17,  9.96, 17.53 au
Average spatial batch extension              ...   0.22,  0.22,  0.28 au

Final grid set up in    0.6 sec
Final integration                            ... done (   0.2 sec)
Change in XC energy                          ...     0.000174569
Integrated number of electrons               ...    61.999964440
Previous integrated no of electrons          ...    62.005623821
Old exchange energy                            =    -10.856542517 Eh
New exchange energy                            =    -10.856181502 Eh
Exchange energy change after final integration =      0.000361015 Eh
Total energy after final integration           =   -433.054757877 Eh
Final COS-X integration done in                =     1.526 sec

----------------
TOTAL SCF ENERGY
----------------

Total Energy       :         -433.05475788 Eh          -11784.01905 eV

Components:
Nuclear Repulsion  :          354.45071167 Eh            9645.09421 eV
Electronic Energy  :         -787.50546955 Eh          -21429.11326 eV
One Electron Energy:        -1292.66444407 Eh          -35175.18780 eV
Two Electron Energy:          505.15897452 Eh           13746.07453 eV

Virial components:
Potential Energy   :         -863.55422437 Eh          -23498.50509 eV
Kinetic Energy     :          430.49946649 Eh           11714.48604 eV
Virial Ratio       :            2.00593564


DFT components:
N(Alpha)           :       30.999982220188 electrons
N(Beta)            :       30.999982220188 electrons
N(Total)           :       61.999964440377 electrons
E(X)               :      -43.212158685187 Eh       
E(C)               :       -2.517216654586 Eh       
E(XC)              :      -45.729375339773 Eh       

---------------
SCF CONVERGENCE
---------------

  Last Energy change         ...   -9.8930e-10  Tolerance :   1.0000e-08
  Last MAX-Density change    ...    5.5019e-14  Tolerance :   1.0000e-07
  Last RMS-Density change    ...    4.9760e-16  Tolerance :   5.0000e-09
  Last Orbital Gradient      ...    7.1160e-07  Tolerance :   1.0000e-05
  Last Orbital Rotation      ...    1.9093e-06  Tolerance :   1.0000e-05

             **** THE GBW FILE WAS UPDATED (AT-v/e/frag_03_c00001.gbw) ****
             **** DENSITY FILE WAS UPDATED (AT-v/e/frag_03_c00001.scfp.tmp) ****
             **** ENERGY FILE WAS UPDATED (AT-v/e/frag_03_c00001.en.tmp) ****
----------------
ORBITAL ENERGIES
----------------

  NO   OCC          E(Eh)            E(eV) 
   0   2.0000     -19.136516      -520.7311 
   1   2.0000     -19.126693      -520.4638 
   2   2.0000     -14.361588      -390.7987 
   3   2.0000     -14.342393      -390.2764 
   4   2.0000     -14.305968      -389.2852 
   5   2.0000     -10.305871      -280.4370 
   6   2.0000     -10.298358      -280.2326 
   7   2.0000     -10.267703      -279.3984 
   8   2.0000      -1.059904       -28.8415 
   9   2.0000      -1.044722       -28.4283 
  10   2.0000      -0.946577       -25.7577 
  11   2.0000      -0.929445       -25.2915 
  12   2.0000      -0.854997       -23.2657 
  13   2.0000      -0.650223       -17.6935 
  14   2.0000      -0.632831       -17.2202 
  15   2.0000      -0.608109       -16.5475 
  16   2.0000      -0.554631       -15.0923 
  17   2.0000      -0.521993       -14.2042 
  18   2.0000      -0.491158       -13.3651 
  19   2.0000      -0.462045       -12.5729 
  20   2.0000      -0.448149       -12.1948 
  21   2.0000      -0.441461       -12.0128 
  22   2.0000      -0.439452       -11.9581 
  23   2.0000      -0.422581       -11.4990 
  24   2.0000      -0.383696       -10.4409 
  25   2.0000      -0.376968       -10.2578 
  26   2.0000      -0.303998        -8.2722 
  27   2.0000      -0.280849        -7.6423 
  28   2.0000      -0.272299        -7.4096 
  29   2.0000      -0.257133        -6.9969 
  30   2.0000      -0.246661        -6.7120 
  31   0.0000      -0.024930        -0.6784 
  32   0.0000       0.021053         0.5729 
  33   0.0000       0.039840         1.0841 
  34   0.0000       0.048585         1.3221 
  35   0.0000       0.070764         1.9256 
  36   0.0000       0.089407         2.4329 
  37   0.0000       0.120377         3.2756 
  38   0.0000       0.126001         3.4286 
  39   0.0000       0.180275         4.9055 
  40   0.0000       0.210183         5.7194 
  41   0.0000       0.228184         6.2092 
  42   0.0000       0.282285         7.6814 
  43   0.0000       0.293726         7.9927 
  44   0.0000       0.328394         8.9360 
  45   0.0000       0.332797         9.0559 
  46   0.0000       0.384765        10.4700 
  47   0.0000       0.416676        11.3383 
  48   0.0000       0.434270        11.8171 
  49   0.0000       0.455225        12.3873 
  50   0.0000       0.460035        12.5182 
  51   0.0000       0.477772        13.0008 
  52   0.0000       0.487714        13.2714 
  53   0.0000       0.516909        14.0658 
  54   0.0000       0.528350        14.3771 
  55   0.0000       0.553581        15.0637 
  56   0.0000       0.565017        15.3749 
  57   0.0000       0.621112        16.9013 
  58   0.0000       0.633732        17.2447 
  59   0.0000       0.640055        17.4168 
  60   0.0000       0.659448        17.9445 
  61   0.0000       0.676576        18.4106 
  62   0.0000       0.708960        19.2918 
  63   0.0000       0.724037        19.7021 
  64   0.0000       0.743882        20.2421 
  65   0.0000       0.752340        20.4722 
  66   0.0000       0.783634        21.3238 
  67   0.0000       0.837741        22.7961 
  68   0.0000       0.856633        23.3102 
  69   0.0000       0.863948        23.5092 
  70   0.0000       0.877807        23.8863 
  71   0.0000       0.909712        24.7545 
  72   0.0000       0.932326        25.3699 
  73   0.0000       0.946995        25.7690 
  74   0.0000       0.973601        26.4930 
  75   0.0000       0.997188        27.1349 
  76   0.0000       1.030165        28.0322 
  77   0.0000       1.054234        28.6872 
  78   0.0000       1.071793        29.1650 
  79   0.0000       1.092083        29.7171 
  80   0.0000       1.121902        30.5285 
  81   0.0000       1.127156        30.6715 
  82   0.0000       1.138829        30.9891 
  83   0.0000       1.200020        32.6542 
  84   0.0000       1.215163        33.0663 
  85   0.0000       1.233610        33.5682 
  86   0.0000       1.270637        34.5758 
  87   0.0000       1.286680        35.0123 
  88   0.0000       1.304299        35.4918 
  89   0.0000       1.315064        35.7847 
  90   0.0000       1.349527        36.7225 
  91   0.0000       1.355651        36.8891 
  92   0.0000       1.474966        40.1359 
  93   0.0000       1.496328        40.7172 
  94   0.0000       1.509510        41.0759 
  95   0.0000       1.523360        41.4527 
  96   0.0000       1.544424        42.0259 
  97   0.0000       1.559954        42.4485 
  98   0.0000       1.598067        43.4856 
  99   0.0000       1.615510        43.9603 
 100   0.0000       1.629308        44.3357 
 101   0.0000       1.679829        45.7105 
 102   0.0000       1.695576        46.1390 
 103   0.0000       1.705680        46.4139 
 104   0.0000       1.714045        46.6415 
 105   0.0000       1.721106        46.8337 
 106   0.0000       1.768581        48.1255 
 107   0.0000       1.777453        48.3670 
 108   0.0000       1.799885        48.9774 
 109   0.0000       1.877311        51.0842 
 110   0.0000       1.880133        51.1610 
 111   0.0000       1.920835        52.2686 
 112   0.0000       1.987827        54.0915 
 113   0.0000       2.048075        55.7310 
 114   0.0000       2.058595        56.0172 
 115   0.0000       2.081954        56.6528 
 116   0.0000       2.133525        58.0562 
 117   0.0000       2.199028        59.8386 
 118   0.0000       2.219387        60.3926 
 119   0.0000       2.246393        61.1275 
 120   0.0000       2.277493        61.9737 
 121   0.0000       2.311712        62.9049 
 122   0.0000       2.321604        63.1741 
 123   0.0000       2.356112        64.1131 
 124   0.0000       2.381489        64.8036 
 125   0.0000       2.418706        65.8163 
 126   0.0000       2.483756        67.5864 
 127   0.0000       2.531052        68.8734 
 128   0.0000       2.566263        69.8316 
 129   0.0000       2.588290        70.4309 
 130   0.0000       2.640865        71.8616 
 131   0.0000       2.673689        72.7548 
 132   0.0000       2.685260        73.0696 
 133   0.0000       2.695147        73.3387 
 134   0.0000       2.733658        74.3866 
 135   0.0000       2.795178        76.0607 
 136   0.0000       2.861074        77.8538 
 137   0.0000       2.886707        78.5513 
 138   0.0000       3.001126        81.6648 
 139   0.0000       3.047792        82.9346 
 140   0.0000       3.097239        84.2802 
 141   0.0000       3.200607        87.0929 
 142   0.0000       3.320494        90.3552 
 143   0.0000       3.411203        92.8236 
 144   0.0000       3.448232        93.8312 
 145   0.0000       3.474455        94.5447 
 146   0.0000       3.502408        95.3054 
-------
TIMINGS
-------

Total SCF time: 0 days 0 hours 0 min 11 sec 

Total time                  ....      11.492 sec
Sum of individual times     ....      11.436 sec  ( 99.5%)

Fock matrix formation       ....      10.338 sec  ( 90.0%)
  Split-RI-J                ....       1.964 sec  ( 19.0% of F)
  Chain of spheres X        ....       7.580 sec  ( 73.3% of F)
  COS-X 1 center corr.      ....       0.000 sec  (  0.0% of F)
  XC integration            ....       0.766 sec  (  7.4% of F)
    Basis function eval.    ....       0.292 sec  ( 38.2% of XC)
    Density eval.           ....       0.123 sec  ( 16.0% of XC)
    XC-Functional eval.     ....       0.038 sec  (  5.0% of XC)
    XC-Potential eval.      ....       0.223 sec  ( 29.1% of XC)
Diagonalization             ....       0.006 sec  (  0.0%)
Density matrix formation    ....       0.043 sec  (  0.4%)
Population analysis         ....       0.000 sec  (  0.0%)
Initial guess               ....       0.007 sec  (  0.1%)
Orbital Transformation      ....       0.000 sec  (  0.0%)
Orbital Orthonormalization  ....       0.005 sec  (  0.0%)
DIIS solution               ....       0.001 sec  (  0.0%)
SOSCF solution              ....       0.104 sec  (  0.9%)
Grid generation             ....       0.937 sec  (  8.2%)


-------------------------------------------------------------------------------
                          DFT DISPERSION CORRECTION                            
                                                                               
                              DFTD3 V3.1  Rev 1                                
                          USING Becke-Johnson damping                          
-------------------------------------------------------------------------------
The B3LYP functional is recognized
Active option DFTDOPT                   ...         4   

molecular C6(AA) [au] = 2186.768149 


            DFT-D V3
 parameters
 s6 scaling factor         :     1.0000 
 a1 scaling factor         :     0.3981 
 s8 scaling factor         :     1.9889 
 a2 scaling factor         :     4.4211 
 ad hoc parameters k1-k3   :    16.0000     1.3333    -4.0000 

 Edisp/kcal,au: -11.899663430482  -0.018963318727 
 E6   /kcal   :  -5.908014200 
 E8   /kcal   :  -5.991649230 
 % E8         :  50.351417629 

-------------------------   ----------------
Dispersion correction           -0.018963319
-------------------------   ----------------


-------------------------   --------------------
FINAL SINGLE POINT ENERGY      -433.073721195534
-------------------------   --------------------

                                *** OPTIMIZATION RUN DONE ***

                            ***************************************
                            *     ORCA property calculations      *
                            ***************************************

                                    ---------------------
                                    Active property flags
                                    ---------------------
   (+) Dipole Moment


------------------------------------------------------------------------------
                       ORCA ELECTRIC PROPERTIES CALCULATION
------------------------------------------------------------------------------

Dipole Moment Calculation                       ... on
Quadrupole Moment Calculation                   ... off
Polarizability Calculation                      ... off
GBWName                                         ... AT-v/e/frag_03_c00001.gbw
Electron density file                           ... AT-v/e/frag_03_c00001.scfp.tmp
The origin for moment calculation is the CENTER OF MASS  = (-1.617744, -0.037467  0.006144)

-------------
DIPOLE MOMENT
-------------
                                X             Y             Z
Electronic contribution:     -3.15226       1.91037      -0.15363
Nuclear contribution   :      3.81913      -2.77756       0.44698
                        -----------------------------------------
Total Dipole Moment    :      0.66687      -0.86719       0.29334
                        -----------------------------------------
Magnitude (a.u.)       :      1.13260
Magnitude (Debye)      :      2.87884


Timings for individual modules:

Sum of individual times         ...      113.108 sec (=   1.885 min)
GTO integral calculation        ...        4.854 sec (=   0.081 min)   4.3 %
SCF iterations                  ...       86.972 sec (=   1.450 min)  76.9 %
SCF Gradient evaluation         ...       20.899 sec (=   0.348 min)  18.5 %
Geometry relaxation             ...        0.383 sec (=   0.006 min)   0.3 %
                             ****ORCA TERMINATED NORMALLY****
TOTAL RUN TIME: 0 days 0 hours 1 minutes 54 seconds 844 msec
