
                                 *****************
                                 * O   R   C   A *
                                 *****************

           --- An Ab Initio, DFT and Semiempirical electronic structure package ---

                  #######################################################
                  #                        -***-                        #
                  #  Department of molecular theory and spectroscopy    #
                  #              Directorship: Frank Neese              #
                  # Max Planck Institute for Chemical Energy Conversion #
                  #                  D-45470 Muelheim/Ruhr              #
                  #                       Germany                       #
                  #                                                     #
                  #                  All rights reserved                #
                  #                        -***-                        #
                  #######################################################


                         Program Version 4.0.1.2 - RELEASE -


 With contributions from (in alphabetic order):
   Daniel Aravena         : Magnetic Properties
   Michael Atanasov       : Ab Initio Ligand Field Theory
   Ute Becker             : Parallelization
   Martin Brehm           : Molecular dynamics
   Dmytro Bykov           : SCF Hessian
   Vijay G. Chilkuri      : MRCI spin determinant printing
   Dipayan Datta          : RHF DLPNO-CCSD density
   Achintya Kumar Dutta   : EOM-CC, STEOM-CC
   Dmitry Ganyushin       : Spin-Orbit,Spin-Spin,Magnetic field MRCI
   Yang Guo               : DLPNO-NEVPT2, CIM, IAO-localization
   Andreas Hansen         : Spin unrestricted coupled pair/coupled cluster methods
   Lee Huntington         : MR-EOM, pCC
   Robert Izsak           : Overlap fitted RIJCOSX, COSX-SCS-MP3, EOM
   Christian Kollmar      : KDIIS, OOCD, Brueckner-CCSD(T), CCSD density
   Simone Kossmann        : Meta GGA functionals, TD-DFT gradient, OOMP2, MP2 Hessian
   Martin Krupicka        : AUTO-CI
   Dagmar Lenk            : GEPOL surface
   Dimitrios Liakos       : Extrapolation schemes; parallel MDCI
   Dimitrios Manganas     : ROCIS; embedding schemes
   Dimitrios Pantazis     : SARC Basis sets
   Taras Petrenko         : DFT Hessian,TD-DFT gradient, ASA, ECA, R-Raman, ABS, FL, XAS/XES, NRVS
   Peter Pinski           : DLPNO-MP2
   Christoph Reimann      : Effective Core Potentials
   Marius Retegan         : Local ZFS, SOC
   Christoph Riplinger    : Optimizer, TS searches, QM/MM, DLPNO-CCSD(T), (RO)-DLPNO pert. Triples
   Tobias Risthaus        : Range-separated hybrids, TD-DFT gradient, RPA, STAB
   Michael Roemelt        : Restricted open shell CIS
   Masaaki Saitow         : Open-shell DLPNO
   Barbara Sandhoefer     : DKH picture change effects
   Kantharuban Sivalingam : CASSCF convergence, NEVPT2, FIC-MRCI
   Georgi Stoychev        : AutoAux
   Boris Wezisla          : Elementary symmetry handling
   Frank Wennmohs         : Technical directorship


 We gratefully acknowledge several colleagues who have allowed us to
 interface, adapt or use parts of their codes:
   Stefan Grimme, W. Hujo, H. Kruse,             : VdW corrections, initial TS optimization,
                  C. Bannwarth                     DFT functionals, gCP, sTDA/sTD-DF
   Ed Valeev                                     : LibInt (2-el integral package), F12 methods
   Garnet Chan, S. Sharma, J. Yang, R. Olivares  : DMRG
   Ulf Ekstrom                                   : XCFun DFT Library
   Mihaly Kallay                                 : mrcc  (arbitrary order and MRCC methods)
   Andreas Klamt, Michael Diedenhofen            : otool_cosmo (COSMO solvation model)
   Jiri Pittner, Ondrej Demel                    : Mk-CCSD
   Frank Weinhold                                : gennbo (NPA and NBO analysis)
   Christopher J. Cramer and Donald G. Truhlar   : smd solvation model


 Your calculation uses the libint2 library for the computation of 2-el integrals
 For citations please refer to: http://libint.valeyev.net

 This ORCA versions uses:
   CBLAS   interface :  Fast vector & matrix operations
   LAPACKE interface :  Fast linear algebra routines
   SCALAPACK package :  Parallel linear algebra routines


Your calculation utilizes the atom-pairwise dispersion correction
with the Becke-Johnson damping scheme (D3BJ)
Cite in your paper:
S.Grimme, S.Ehrlich, L.Goerigk, J Comput Chem, (2011), 32, 1456–1465 
S.Grimme, J.Antony, S.Ehrlich and H.Krieg, J.Chem.Phys., 132, (2010), 154104 
   

Your calculation utilizes the basis: cc-pVDZ 
       H, B-Ne : Obtained from the ccRepo (grant-hill.group.shef.ac.uk/ccrepo) Feb. 2017
                 T. H. Dunning, Jr., J. Chem. Phys. 90, 1007 (1989)
            He : Obtained from the ccRepo (grant-hill.group.shef.ac.uk/ccrepo) Feb. 2017
                 D. E. Woon, T. H. Dunning, Jr., J. Chem. Phys. 100, 2975 (1994)
  Li-Be, Na-Mg : Obtained from the ccRepo (grant-hill.group.shef.ac.uk/ccrepo) Feb. 2017
                 B. P. Prascher, D. E. Woon, K. A. Peterson, T. H. Dunning, Jr., A. K. Wilson, Theor. Chem. Acc. 128, 69 (2011)
         Al-Ar : Obtained from the ccRepo (grant-hill.group.shef.ac.uk/ccrepo) Feb. 2017
                 D. E. Woon, T. H. Dunning, Jr., J. Chem. Phys. 98, 1358 (1993)
            Ca : Obtained from the Peterson Research Group Website (tyr0.chem.wsu.edu/~kipeters) Feb. 2017
                 J. Koput, K. A. Peterson, J. Phys. Chem. 106, 9595 (2002)
         Sc-Zn : Obtained from the ccRepo (grant-hill.group.shef.ac.uk/ccrepo) Feb. 2017
                 N. B. Balabanov, K. A. Peterson, J. Chem. Phys. 123, 064107 (2005)
                 N. B. Balabanov, K. A. Peterson, J. Chem. Phys. 125, 074110 (2006)
         Ga-Kr : Obtained from the ccRepo (grant-hill.group.shef.ac.uk/ccrepo) Feb. 2017
                 A. K. Wilson, D. E. Woon, K. A. Peterson, T. H. Dunning, Jr., J. Chem. Phys. 110, 7667 (1999)

Your calculation utilizes the auxiliary basis: def2/J
   F. Weigend, Phys. Chem. Chem. Phys. 8, 1057 (2006).

================================================================================
                                        WARNINGS
                       Please study these warnings very carefully!
================================================================================

Warning: TCutStore was < 0. Adjusted to Thresh (uncritical)

WARNING: Geometry Optimization
  ===> : Switching off AutoStart
         For restart on a previous wavefunction, please use MOREAD

INFO   : the flag for use of LIBINT has been found!

================================================================================
                                       INPUT FILE
================================================================================
NAME = AT-v/e/frag_15_c00001.com
|  1> %pal nprocs 6 end
|  2> %maxcore 1000
|  3> ! b3lyp TIGHTSCF nopop D3BJ
|  4> ! cc-pvdz def2/J RIJCOSX
|  5> ! Opt
|  6> 
|  7> %geom
|  8> maxiter 60
|  9> TolE 1e-4
| 10> TolRMSG 2e-3
| 11> TolMaxG 3e-3
| 12> TolRMSD 2e-2
| 13> TolMaxD 3e-2
| 14> end
| 15> 
| 16> *xyz 0 1
| 17> C 5.145 -1.3277 -0.0023
| 18> N 3.8654 -1.4646 -0.0693
| 19> C 3.1145 -0.3043 -0.0862
| 20> C 1.7588 -0.3254 -0.1552
| 21> N 1.1504 -1.5658 -0.2108
| 22> N 0.9285 0.7765 -0.1753
| 23> C 1.3785 1.9811 -0.1292
| 24> N -1.9063 0.1352 0.0217
| 25> C -2.3699 -1.0843 0.4071
| 26> O -1.6425 -2.0103 0.738
| 27> H 5.6655 -0.3536 0.04
| 28> H 5.782 -2.2254 0.0085
| 29> H 3.6515 0.634 -0.039
| 30> H 1.7925 -2.2964 0.0925
| 31> H 0.2585 -1.5977 0.2844
| 32> H 2.4362 2.279 -0.0641
| 33> H 0.6535 2.8074 -0.1537
| 34> H -2.5044 0.8364 -0.3933
| 35> H -0.8942 0.2488 -0.0986
| 36> H -3.4699 -1.1547 0.3841
| 37> *
| 38> 
| 39> 
| 40>                          ****END OF INPUT****
================================================================================

                       *****************************
                       * Geometry Optimization Run *
                       *****************************

Geometry optimization settings:
Update method            Update   .... BFGS
Choice of coordinates    CoordSys .... Redundant Internals
Initial Hessian          InHess   .... Almoef's Model

Convergence Tolerances:
Energy Change            TolE     ....  1.0000e-04 Eh
Max. Gradient            TolMAXG  ....  3.0000e-03 Eh/bohr
RMS Gradient             TolRMSG  ....  2.0000e-03 Eh/bohr
Max. Displacement        TolMAXD  ....  3.0000e-02 bohr
RMS Displacement         TolRMSD  ....  2.0000e-02 bohr

------------------------------------------------------------------------------
                        ORCA OPTIMIZATION COORDINATE SETUP
------------------------------------------------------------------------------

The optimization will be done in new redundant internal coordinates
Making redundant internal coordinates   ...  (new redundants) done
Evaluating the initial hessian          ...  (Almloef) done
Evaluating the coordinates              ...  done
Calculating the B-matrix                .... done
Calculating the G-matrix                .... done
Diagonalizing the G-matrix              .... done
Small eigenvalue found = 1.143e-02
The first mode is                       ....   43
The number of degrees of freedom        ....   54

    -----------------------------------------------------------------
                    Redundant Internal Coordinates


    -----------------------------------------------------------------
         Definition                    Initial Value    Approx d2E/dq
    -----------------------------------------------------------------
      1. B(N   1,C   0)                  1.2886         0.812046   
      2. B(C   2,N   1)                  1.3822         0.575898   
      3. B(C   3,C   2)                  1.3576         0.703721   
      4. B(N   4,C   3)                  1.3827         0.574826   
      5. B(N   5,C   3)                  1.3798         0.580857   
      6. B(C   6,N   5)                  1.2867         0.817765   
      7. B(C   8,N   7)                  1.3604         0.623921   
      8. B(O   9,C   8)                  1.2231         1.032960   
      9. B(H  10,C   0)                  1.1053         0.340479   
     10. B(H  11,C   0)                  1.1008         0.346098   
     11. B(H  12,C   2)                  1.0821         0.370664   
     12. B(H  13,N   4)                  1.0189         0.418863   
     13. B(H  14,N   4)                  1.0206         0.416106   
     14. B(H  14,O   9)                  1.9974         0.011502   
     15. B(H  15,C   6)                  1.1008         0.346121   
     16. B(H  16,C   6)                  1.0995         0.347693   
     17. B(H  17,N   7)                  1.0108         0.431506   
     18. B(H  18,H  14)                  2.2102         0.001125   
     19. B(H  18,N   5)                  1.8991         0.016508   
     20. B(H  18,N   7)                  1.0255         0.408704   
     21. B(H  19,C   8)                  1.1025         0.343950   
     22. A(H  10,C   0,H  11)          116.4771         0.286515   
     23. A(N   1,C   0,H  10)          124.2807         0.363715   
     24. A(N   1,C   0,H  11)          119.2411         0.364735   
     25. A(C   0,N   1,C   2)          116.8022         0.443810   
     26. A(C   3,C   2,H  12)          120.7462         0.362368   
     27. A(N   1,C   2,C   3)          122.0107         0.435347   
     28. A(N   1,C   2,H  12)          117.2429         0.348092   
     29. A(C   2,C   3,N   4)          117.0891         0.435201   
     30. A(N   4,C   3,N   5)          116.8099         0.417760   
     31. A(C   2,C   3,N   5)          126.1010         0.436020   
     32. A(C   3,N   4,H  14)          113.1435         0.351753   
     33. A(H  13,N   4,H  14)          112.5739         0.299811   
     34. A(C   3,N   4,H  13)          110.7330         0.352146   
     35. A(C   3,N   5,C   6)          122.4545         0.445065   
     36. A(C   6,N   5,H  18)          126.4654         0.226083   
     37. A(C   3,N   5,H  18)          110.7959         0.215870   
     38. A(H  15,C   6,H  16)          115.5631         0.287458   
     39. A(N   5,C   6,H  16)          118.1727         0.365461   
     40. A(N   5,C   6,H  15)          126.2641         0.365177   
     41. A(H  17,N   7,H  18)          117.3208         0.300374   
     42. A(C   8,N   7,H  18)          117.9600         0.355588   
     43. A(C   8,N   7,H  17)          122.4496         0.358884   
     44. A(N   7,C   8,O   9)          123.5484         0.470524   
     45. A(O   9,C   8,H  19)          123.4119         0.379759   
     46. A(N   7,C   8,H  19)          113.0385         0.348403   
     47. A(C   8,O   9,H  14)          110.3751         0.222178   
     48. A(N   4,H  14,H  18)          110.2160         0.133668   
     49. A(N   4,H  14,O   9)          161.4951         0.182436   
     50. A(O   9,H  14,H  18)           73.4752         0.108827   
     51. A(N   5,H  18,H  14)           74.8461         0.110517   
     52. A(N   7,H  18,H  14)          113.6929         0.133486   
     53. A(N   5,H  18,N   7)          169.3310         0.189987   
     54. D(C   2,N   1,C   0,H  11)   -179.6961         0.051006   
     55. D(C   2,N   1,C   0,H  10)     -0.0970         0.051006   
     56. D(C   3,C   2,N   1,C   0)    179.9873         0.024102   
     57. D(H  12,C   2,N   1,C   0)     -0.1883         0.024102   
     58. D(N   4,C   3,C   2,H  12)   -179.9226         0.034910   
     59. D(N   5,C   3,C   2,N   1)    179.9035         0.034910   
     60. D(N   4,C   3,C   2,N   1)     -0.1043         0.034910   
     61. D(N   5,C   3,C   2,H  12)      0.0852         0.034910   
     62. D(H  14,N   4,C   3,N   5)    -35.1449         0.026472   
     63. D(H  14,N   4,C   3,C   2)    144.8622         0.026472   
     64. D(H  13,N   4,C   3,C   2)     17.4046         0.026472   
     65. D(H  13,N   4,C   3,N   5)   -162.6025         0.026472   
     66. D(H  18,N   5,C   3,C   2)   -174.2092         0.027066   
     67. D(C   6,N   5,C   3,N   4)   -179.9602         0.027066   
     68. D(C   6,N   5,C   3,C   2)      0.0320         0.027066   
     69. D(H  18,N   5,C   3,N   4)      5.7986         0.027066   
     70. D(H  16,C   6,N   5,H  18)     -6.9517         0.057326   
     71. D(H  16,C   6,N   5,C   3)    179.7465         0.057326   
     72. D(H  15,C   6,N   5,H  18)    172.8991         0.057326   
     73. D(H  15,C   6,N   5,C   3)     -0.4027         0.057326   
     74. D(H  19,C   8,N   7,H  18)   -172.4657         0.031553   
     75. D(H  19,C   8,N   7,H  17)    -10.0489         0.031553   
     76. D(O   9,C   8,N   7,H  18)      7.1476         0.031553   
     77. D(O   9,C   8,N   7,H  17)    169.5645         0.031553   
     78. D(H  14,O   9,C   8,H  19)    168.3184         0.088293   
     79. D(H  14,O   9,C   8,N   7)    -11.2553         0.088293   
     80. D(H  18,H  14,N   4,H  13)    167.7274         0.217171   
     81. D(H  18,H  14,N   4,C   3)     41.2407         0.217171   
     82. D(O   9,H  14,N   4,H  13)    -93.9202         0.217171   
     83. D(N   4,H  14,O   9,C   8)    -96.6775         0.001569   
     84. D(O   9,H  14,N   4,C   3)    139.5931         0.217171   
     85. D(H  18,H  14,O   9,C   8)      7.7548         0.001569   
     86. D(N   5,H  18,H  14,O   9)    168.1510         0.001513   
     87. D(N   7,H  18,H  14,O   9)     -5.0575         0.001513   
     88. D(N   7,H  18,H  14,N   4)    155.8225         0.001513   
     89. D(H  14,H  18,N   7,H  17)   -162.2671         0.207595   
     90. D(H  14,H  18,N   7,C   8)      1.0587         0.207595   
     91. D(N   5,H  18,N   7,H  17)     55.7972         0.207595   
     92. D(N   5,H  18,N   7,C   8)   -140.8769         0.207595   
     93. D(H  14,H  18,N   5,C   6)   -164.7407         0.001659   
     94. D(H  14,H  18,N   5,C   3)      9.2159         0.001659   
     95. D(N   5,H  18,H  14,N   4)    -30.9689         0.001513   
     96. D(N   7,H  18,N   5,C   6)    -20.5380         0.001659   
     97. D(N   7,H  18,N   5,C   3)    153.4186         0.001659   
    -----------------------------------------------------------------

Number of atoms                         .... 20
Number of degrees of freedom            .... 97

         *************************************************************
         *                GEOMETRY OPTIMIZATION CYCLE   1            *
         *************************************************************
---------------------------------
CARTESIAN COORDINATES (ANGSTROEM)
---------------------------------
  C      5.145000   -1.327700   -0.002300
  N      3.865400   -1.464600   -0.069300
  C      3.114500   -0.304300   -0.086200
  C      1.758800   -0.325400   -0.155200
  N      1.150400   -1.565800   -0.210800
  N      0.928500    0.776500   -0.175300
  C      1.378500    1.981100   -0.129200
  N     -1.906300    0.135200    0.021700
  C     -2.369900   -1.084300    0.407100
  O     -1.642500   -2.010300    0.738000
  H      5.665500   -0.353600    0.040000
  H      5.782000   -2.225400    0.008500
  H      3.651500    0.634000   -0.039000
  H      1.792500   -2.296400    0.092500
  H      0.258500   -1.597700    0.284400
  H      2.436200    2.279000   -0.064100
  H      0.653500    2.807400   -0.153700
  H     -2.504400    0.836400   -0.393300
  H     -0.894200    0.248800   -0.098600
  H     -3.469900   -1.154700    0.384100

----------------------------
CARTESIAN COORDINATES (A.U.)
----------------------------
  NO LB      ZA    FRAG     MASS         X           Y           Z
   0 C     6.0000    0    12.011    9.722641   -2.508989   -0.004346
   1 N     7.0000    0    14.007    7.304547   -2.767693   -0.130958
   2 C     6.0000    0    12.011    5.885552   -0.575044   -0.162894
   3 C     6.0000    0    12.011    3.323650   -0.614917   -0.293285
   4 N     7.0000    0    14.007    2.173941   -2.958933   -0.398354
   5 N     7.0000    0    14.007    1.754611    1.467372   -0.331269
   6 C     6.0000    0    12.011    2.604987    3.743736   -0.244153
   7 N     7.0000    0    14.007   -3.602385    0.255491    0.041007
   8 C     6.0000    0    12.011   -4.478462   -2.049030    0.769308
   9 O     8.0000    0    15.999   -3.103875   -3.798916    1.394618
  10 H     1.0000    0     1.008   10.706243   -0.668207    0.075589
  11 H     1.0000    0     1.008   10.926397   -4.205397    0.016063
  12 H     1.0000    0     1.008    6.900335    1.198086   -0.073699
  13 H     1.0000    0     1.008    3.387334   -4.339567    0.174800
  14 H     1.0000    0     1.008    0.488494   -3.019215    0.537438
  15 H     1.0000    0     1.008    4.603751    4.306686   -0.121131
  16 H     1.0000    0     1.008    1.234936    5.305217   -0.290451
  17 H     1.0000    0     1.008   -4.732630    1.580567   -0.743229
  18 H     1.0000    0     1.008   -1.689793    0.470164   -0.186327
  19 H     1.0000    0     1.008   -6.557161   -2.182067    0.725844

--------------------------------
INTERNAL COORDINATES (ANGSTROEM)
--------------------------------
 C      0   0   0     0.000000000000     0.00000000     0.00000000
 N      1   0   0     1.288645323586     0.00000000     0.00000000
 C      2   1   0     1.382183963877   116.80218533     0.00000000
 C      3   2   1     1.357618760919   122.01067932   179.98733094
 N      4   3   2     1.382690883748   117.08912529   359.89567826
 N      4   3   2     1.379849886763   126.10102344   179.90347460
 C      6   4   3     1.286734770650   122.45452629     0.03202089
 N      6   4   3     2.913102423534   114.12784722   187.62202912
 C      8   6   4     1.360381700112   123.23883369    14.50512561
 O      9   8   6     1.223144132962   123.54839233     1.92349964
 H      1   2   3     1.105251261026   124.28067335   359.90299784
 H      1   2   3     1.100795589562   119.24107937   180.30386253
 H      3   2   1     1.082129257529   117.24292128   359.81169625
 H      5   4   3     1.018852128623   110.73299310    17.40455024
 H      5   4   3     1.020649920394   113.14345945   144.86215147
 H      7   6   4     1.100777775030   126.26405214   359.59731509
 H      7   6   4     1.099543969107   118.17273467   179.74650667
 H      8   6   4     1.010757166682   113.28728121   205.84548002
 H      8   6   4     1.025535694162     6.93205870   332.71862860
 H      9   8   6     1.102490435333   113.03847716   182.31015172

---------------------------
INTERNAL COORDINATES (A.U.)
---------------------------
 C      0   0   0     0.000000000000     0.00000000     0.00000000
 N      1   0   0     2.435186745336     0.00000000     0.00000000
 C      2   1   0     2.611949158426   116.80218533     0.00000000
 C      3   2   1     2.565527652411   122.01067932   179.98733094
 N      4   3   2     2.612907098153   117.08912529   359.89567826
 N      4   3   2     2.607538391904   126.10102344   179.90347460
 C      6   4   3     2.431576323523   122.45452629     0.03202089
 N      6   4   3     5.504965780542   114.12784722   187.62202912
 C      8   6   4     2.570748850810   123.23883369    14.50512561
 O      9   8   6     2.311407433611   123.54839233     1.92349964
 H      1   2   3     2.088622192511   124.28067335   359.90299784
 H      1   2   3     2.080202193701   119.24107937   180.30386253
 H      3   2   1     2.044927938233   117.24292128   359.81169625
 H      5   4   3     1.925351494061   110.73299310    17.40455024
 H      5   4   3     1.928748828153   113.14345945   144.86215147
 H      7   6   4     2.080168529114   126.26405214   359.59731509
 H      7   6   4     2.077836973817   118.17273467   179.74650667
 H      8   6   4     1.910054232928   113.28728121   205.84548002
 H      8   6   4     1.937981602527     6.93205870   332.71862860
 H      9   8   6     2.083404988046   113.03847716   182.31015172

---------------------
BASIS SET INFORMATION
---------------------
There are 4 groups of distinct atoms

 Group   1 Type C   : 17s4p1d contracted to 3s2p1d pattern {881/31/1}
 Group   2 Type N   : 17s4p1d contracted to 3s2p1d pattern {881/31/1}
 Group   3 Type O   : 17s4p1d contracted to 3s2p1d pattern {881/31/1}
 Group   4 Type H   : 4s1p contracted to 2s1p pattern {31/1}

Atom   0C    basis set group =>   1
Atom   1N    basis set group =>   2
Atom   2C    basis set group =>   1
Atom   3C    basis set group =>   1
Atom   4N    basis set group =>   2
Atom   5N    basis set group =>   2
Atom   6C    basis set group =>   1
Atom   7N    basis set group =>   2
Atom   8C    basis set group =>   1
Atom   9O    basis set group =>   3
Atom  10H    basis set group =>   4
Atom  11H    basis set group =>   4
Atom  12H    basis set group =>   4
Atom  13H    basis set group =>   4
Atom  14H    basis set group =>   4
Atom  15H    basis set group =>   4
Atom  16H    basis set group =>   4
Atom  17H    basis set group =>   4
Atom  18H    basis set group =>   4
Atom  19H    basis set group =>   4
-------------------------------
AUXILIARY BASIS SET INFORMATION
-------------------------------
There are 4 groups of distinct atoms

 Group   1 Type C   : 12s5p4d2f1g contracted to 6s4p3d1f1g pattern {711111/2111/211/2/1}
 Group   2 Type N   : 12s5p4d2f1g contracted to 6s4p3d1f1g pattern {711111/2111/211/2/1}
 Group   3 Type O   : 12s5p4d2f1g contracted to 6s4p3d1f1g pattern {711111/2111/211/2/1}
 Group   4 Type H   : 5s2p1d contracted to 3s1p1d pattern {311/2/1}

Atom   0C    basis set group =>   1
Atom   1N    basis set group =>   2
Atom   2C    basis set group =>   1
Atom   3C    basis set group =>   1
Atom   4N    basis set group =>   2
Atom   5N    basis set group =>   2
Atom   6C    basis set group =>   1
Atom   7N    basis set group =>   2
Atom   8C    basis set group =>   1
Atom   9O    basis set group =>   3
Atom  10H    basis set group =>   4
Atom  11H    basis set group =>   4
Atom  12H    basis set group =>   4
Atom  13H    basis set group =>   4
Atom  14H    basis set group =>   4
Atom  15H    basis set group =>   4
Atom  16H    basis set group =>   4
Atom  17H    basis set group =>   4
Atom  18H    basis set group =>   4
Atom  19H    basis set group =>   4


           ************************************************************
           *        Program running with 6 parallel MPI-processes     *
           *              working on a common directory               *
           ************************************************************
------------------------------------------------------------------------------
                           ORCA GTO INTEGRAL CALCULATION
                           -- RI-GTO INTEGRALS CHOSEN --
------------------------------------------------------------------------------

                         BASIS SET STATISTICS AND STARTUP INFO

Gaussian basis set:
 # of primitive gaussian shells          ...  270
 # of primitive gaussian functions       ...  410
 # of contracted shells                  ...   90
 # of contracted basis functions         ...  190
 Highest angular momentum                ...    2
 Maximum contraction depth               ...    8
Auxiliary gaussian basis set:
 # of primitive gaussian shells          ...  320
 # of primitive gaussian functions       ...  860
 # of contracted shells                  ...  200
 # of contracted aux-basis functions     ...  600
 Highest angular momentum                ...    4
 Maximum contraction depth               ...    7
Ratio of auxiliary to basis functions    ...  3.16
Integral package used                  ... LIBINT
 One Electron integrals                  ... done
 Ordering auxiliary basis shells         ... done
 Integral threshhold             Thresh  ...  2.500e-11
 Primitive cut-off               TCut    ...  2.500e-12
 Pre-screening matrix                    ... done
 Shell pair data                         ... 
 Ordering of the shell pairs             ... done (   0.001 sec) 3609 of 4095 pairs
 Determination of significant pairs      ... done (   0.000 sec)
 Creation of shell pair data             ... done (   0.002 sec)
 Storage of shell pair data              ... done (   0.003 sec)
 Shell pair data done in (   0.006 sec)
 Computing two index integrals           ... done
 Cholesky decomposition of the V-matrix  ... done


Timings:
 Total evaluation time                   ...   0.415 sec (  0.007 min)
 One electron matrix time                ...   0.059 sec (  0.001 min) = 14.3%
 Schwartz matrix evaluation time         ...   0.306 sec (  0.005 min) = 73.6%
 Two index repulsion integral time       ...   0.014 sec (  0.000 min) =  3.3%
 Cholesky decomposition of V             ...   0.011 sec (  0.000 min) =  2.6%
 Three index repulsion integral time     ...   0.000 sec (  0.000 min) =  0.0%



           ************************************************************
           *        Program running with 6 parallel MPI-processes     *
           *              working on a common directory               *
           ************************************************************
-------------------------------------------------------------------------------
                                 ORCA SCF
-------------------------------------------------------------------------------

------------
SCF SETTINGS
------------
Hamiltonian:
 Density Functional     Method          .... DFT(GTOs)
 Exchange Functional    Exchange        .... B88
   X-Alpha parameter    XAlpha          ....  0.666667
   Becke's b parameter  XBeta           ....  0.004200
 Correlation Functional Correlation     .... LYP
 LDA part of GGA corr.  LDAOpt          .... VWN-5
 Gradients option       PostSCFGGA      .... off
 Hybrid DFT is turned on
   Fraction HF Exchange ScalHFX         ....  0.200000
   Scaling of DF-GGA-X  ScalDFX         ....  0.720000
   Scaling of DF-GGA-C  ScalDFC         ....  0.810000
   Scaling of DF-LDA-C  ScalLDAC        ....  1.000000
   Perturbative correction              ....  0.000000
   NL short-range parameter             ....  4.800000
 RI-approximation to the Coulomb term is turned on
   Number of auxiliary basis functions  .... 600
   RIJ-COSX (HFX calculated with COS-X)).... on


General Settings:
 Integral files         IntName         .... AT-v/e/frag_15_c00001
 Hartree-Fock type      HFTyp           .... RHF
 Total Charge           Charge          ....    0
 Multiplicity           Mult            ....    1
 Number of Electrons    NEL             ....   76
 Basis Dimension        Dim             ....  190
 Nuclear Repulsion      ENuc            ....    496.4207813150 Eh

Convergence Acceleration:
 DIIS                   CNVDIIS         .... on
   Start iteration      DIISMaxIt       ....    12
   Startup error        DIISStart       ....  0.200000
   # of expansion vecs  DIISMaxEq       ....     5
   Bias factor          DIISBfac        ....   1.050
   Max. coefficient     DIISMaxC        ....  10.000
 Newton-Raphson         CNVNR           .... off
 SOSCF                  CNVSOSCF        .... on
   Start iteration      SOSCFMaxIt      ....   150
   Startup grad/error   SOSCFStart      ....  0.003300
 Level Shifting         CNVShift        .... on
   Level shift para.    LevelShift      ....    0.2500
   Turn off err/grad.   ShiftErr        ....    0.0010
 Zerner damping         CNVZerner       .... off
 Static damping         CNVDamp         .... on
   Fraction old density DampFac         ....    0.7000
   Max. Damping (<1)    DampMax         ....    0.9800
   Min. Damping (>=0)   DampMin         ....    0.0000
   Turn off err/grad.   DampErr         ....    0.1000
 Fernandez-Rico         CNVRico         .... off

SCF Procedure:
 Maximum # iterations   MaxIter         ....   125
 SCF integral mode      SCFMode         .... Direct
   Integral package                     .... LIBINT
 Reset frequeny         DirectResetFreq ....    20
 Integral Threshold     Thresh          ....  2.500e-11 Eh
 Primitive CutOff       TCut            ....  2.500e-12 Eh

Convergence Tolerance:
 Convergence Check Mode ConvCheckMode   .... Total+1el-Energy
 Convergence forced     ConvForced      .... 0
 Energy Change          TolE            ....  1.000e-08 Eh
 1-El. energy change                    ....  1.000e-05 Eh
 Orbital Gradient       TolG            ....  1.000e-05
 Orbital Rotation angle TolX            ....  1.000e-05
 DIIS Error             TolErr          ....  5.000e-07


Diagonalization of the overlap matrix:
Smallest eigenvalue                        ... 1.099e-03
Time for diagonalization                   ...    0.009 sec
Threshold for overlap eigenvalues          ... 1.000e-08
Number of eigenvalues below threshold      ... 0
Time for construction of square roots      ...    0.004 sec
Total time needed                          ...    0.013 sec

-------------------
DFT GRID GENERATION
-------------------

General Integration Accuracy     IntAcc      ...  4.340
Radial Grid Type                 RadialGrid  ... Gauss-Chebyshev
Angular Grid (max. acc.)         AngularGrid ... Lebedev-110
Angular grid pruning method      GridPruning ... 3 (G Style)
Weight generation scheme         WeightScheme... Becke
Basis function cutoff            BFCut       ...    1.0000e-11
Integration weight cutoff        WCut        ...    1.0000e-14
Grids for H and He will be reduced by one unit

# of grid points (after initial pruning)     ...  24744 (   0.0 sec)
# of grid points (after weights+screening)   ...  23009 (   0.0 sec)
nearest neighbour list constructed           ...    0.0 sec
Grid point re-assignment to atoms done       ...    0.0 sec
Grid point division into batches done        ...    0.0 sec
Reduced shell lists constructed in    0.1 sec

Total number of grid points                  ...    23009
Total number of batches                      ...      369
Average number of points per batch           ...       62
Average number of grid points per atom       ...     1150
Average number of shells per batch           ...    62.13 (69.03%)
Average number of basis functions per batch  ...   126.29 (66.47%)
Average number of large shells per batch     ...    47.44 (76.37%)
Average number of large basis fcns per batch ...    98.17 (77.74%)
Maximum spatial batch extension              ...   3.85,  7.14, 22.53 au
Average spatial batch extension              ...   0.32,  0.36,  0.67 au

Time for grid setup =    0.136 sec

------------------------------
INITIAL GUESS: MODEL POTENTIAL
------------------------------
Loading Hartree-Fock densities                     ... done
Calculating cut-offs                               ... done
Setting up the integral package                    ... done
Initializing the effective Hamiltonian             ... done
Starting the Coulomb interaction                   ... done (   0.1 sec)
Reading the grid                                   ... done
Mapping shells                                     ... done
Starting the XC term evaluation                    ... done (   0.1 sec)
  promolecular density results
     # of electrons  =     75.995375562
     EX              =    -63.115314353
     EC              =     -2.571862035
     EX+EC           =    -65.687176388
Transforming the Hamiltonian                       ... done (   0.0 sec)
Diagonalizing the Hamiltonian                      ... done (   0.0 sec)
Back transforming the eigenvectors                 ... done (   0.0 sec)
Now organizing SCF variables                       ... done
                      ------------------
                      INITIAL GUESS DONE (   0.4 sec)
                      ------------------
--------------------
COSX GRID GENERATION
--------------------

General Integration Accuracy     IntAcc      ...  3.340
Radial Grid Type                 RadialGrid  ... Gauss-Chebyshev
Angular Grid (max. acc.)         AngularGrid ... Lebedev-50
Angular grid pruning method      GridPruning ... 3 (G Style)
Weight generation scheme         WeightScheme... Becke
Basis function cutoff            BFCut       ...    1.0000e-11
Integration weight cutoff        WCut        ...    1.0000e-14
Grids for H and He will be reduced by one unit

# of grid points (after initial pruning)     ...   8944 (   0.0 sec)
# of grid points (after weights+screening)   ...   8376 (   0.0 sec)
nearest neighbour list constructed           ...    0.0 sec
Grid point re-assignment to atoms done       ...    0.0 sec
Grid point division into batches done        ...    0.0 sec
Reduced shell lists constructed in    0.0 sec

Total number of grid points                  ...     8376
Total number of batches                      ...      139
Average number of points per batch           ...       60
Average number of grid points per atom       ...      419
Average number of shells per batch           ...    62.80 (69.78%)
Average number of basis functions per batch  ...   128.40 (67.58%)
Average number of large shells per batch     ...    48.84 (77.77%)
Average number of large basis fcns per batch ...   101.32 (78.91%)
Maximum spatial batch extension              ...   3.49,  5.65, 27.23 au
Average spatial batch extension              ...   0.39,  0.45,  1.28 au

Overlap Fitting                  UseSFitting ... on
Constructing numerical overlap ... done (      0.0 sec)
Inverting numerical overlap    ... done (      0.0 sec)
Obtaining analytic overlap     ... done (      0.0 sec)
Final contraction and storage  ... done (      0.0 sec)


General Integration Accuracy     IntAcc      ...  3.670
Radial Grid Type                 RadialGrid  ... Gauss-Chebyshev
Angular Grid (max. acc.)         AngularGrid ... Lebedev-50
Angular grid pruning method      GridPruning ... 3 (G Style)
Weight generation scheme         WeightScheme... Becke
Basis function cutoff            BFCut       ...    1.0000e-11
Integration weight cutoff        WCut        ...    1.0000e-14
Grids for H and He will be reduced by one unit

# of grid points (after initial pruning)     ...  11444 (   0.0 sec)
# of grid points (after weights+screening)   ...  10686 (   0.0 sec)
nearest neighbour list constructed           ...    0.0 sec
Grid point re-assignment to atoms done       ...    0.0 sec
Grid point division into batches done        ...    0.0 sec
Reduced shell lists constructed in    0.0 sec

Total number of grid points                  ...    10686
Total number of batches                      ...      178
Average number of points per batch           ...       60
Average number of grid points per atom       ...      534
Average number of shells per batch           ...    62.32 (69.25%)
Average number of basis functions per batch  ...   127.03 (66.86%)
Average number of large shells per batch     ...    48.10 (77.17%)
Average number of large basis fcns per batch ...    99.39 (78.24%)
Maximum spatial batch extension              ...   3.77,  5.56, 25.36 au
Average spatial batch extension              ...   0.35,  0.43,  1.09 au

Overlap Fitting                  UseSFitting ... on
Constructing numerical overlap ... done (      0.0 sec)
Inverting numerical overlap    ... done (      0.0 sec)
Obtaining analytic overlap     ... done (      0.0 sec)
Final contraction and storage  ... done (      0.0 sec)


General Integration Accuracy     IntAcc      ...  4.010
Radial Grid Type                 RadialGrid  ... Gauss-Chebyshev
Angular Grid (max. acc.)         AngularGrid ... Lebedev-110
Angular grid pruning method      GridPruning ... 3 (G Style)
Weight generation scheme         WeightScheme... Becke
Basis function cutoff            BFCut       ...    1.0000e-11
Integration weight cutoff        WCut        ...    1.0000e-14
Grids for H and He will be reduced by one unit

# of grid points (after initial pruning)     ...  21314 (   0.0 sec)
# of grid points (after weights+screening)   ...  19849 (   0.0 sec)
nearest neighbour list constructed           ...    0.0 sec
Grid point re-assignment to atoms done       ...    0.0 sec
Grid point division into batches done        ...    0.0 sec
Reduced shell lists constructed in    0.1 sec

Total number of grid points                  ...    19849
Total number of batches                      ...      321
Average number of points per batch           ...       61
Average number of grid points per atom       ...      992
Average number of shells per batch           ...    61.95 (68.83%)
Average number of basis functions per batch  ...   126.16 (66.40%)
Average number of large shells per batch     ...    47.38 (76.49%)
Average number of large basis fcns per batch ...    98.11 (77.76%)
Maximum spatial batch extension              ...   3.65,  6.54, 36.50 au
Average spatial batch extension              ...   0.33,  0.38,  0.78 au

Overlap Fitting                  UseSFitting ... on
Constructing numerical overlap ... done (      0.0 sec)
Inverting numerical overlap    ... done (      0.0 sec)
Obtaining analytic overlap     ... done (      0.0 sec)
Final contraction and storage  ... done (      0.0 sec)

Time for X-Grid setup             =    0.408 sec
--------------
SCF ITERATIONS
--------------
ITER       Energy         Delta-E        Max-DP      RMS-DP      [F,P]     Damp
               ***  Starting incremental Fock matrix formation  ***
  0   -490.1237078467   0.000000000000 0.09414060  0.00235520  0.2686637 0.7000
  1   -490.2944397575  -0.170731910863 0.05475952  0.00156757  0.1116325 0.7000
                               ***Turning on DIIS***
  2   -490.3553280374  -0.060888279822 0.07209996  0.00228454  0.0415349 0.0000
  3   -490.4538124297  -0.098484392356 0.03728442  0.00112515  0.0602863 0.0000
  4   -490.4760706023  -0.022258172565 0.01001656  0.00033099  0.0157517 0.0000
  5   -490.4777643373  -0.001693735018 0.00405798  0.00011321  0.0052828 0.0000
                      *** Initiating the SOSCF procedure ***
                           *** Shutting down DIIS ***
                      *** Re-Reading the Fockian *** 
                      *** Removing any level shift *** 
ITER      Energy       Delta-E        Grad      Rot      Max-DP    RMS-DP
  6   -490.47785714  -0.0000928010  0.000517  0.000517  0.001383  0.000042
               *** Restarting incremental Fock matrix formation ***
  7   -490.47788637  -0.0000292272  0.000225  0.001009  0.000949  0.000030
  8   -490.47788706  -0.0000006967  0.000275  0.001062  0.000903  0.000019
  9   -490.47788903  -0.0000019646  0.000135  0.000461  0.000342  0.000013
 10   -490.47788928  -0.0000002485  0.000047  0.000083  0.000170  0.000004
 11   -490.47788938  -0.0000001084  0.000036  0.000065  0.000102  0.000003
 12   -490.47788943  -0.0000000419  0.000020  0.000053  0.000082  0.000001
 13   -490.47788944  -0.0000000128  0.000011  0.000051  0.000050  0.000001
 14   -490.47788943   0.0000000060  0.000005  0.000014  0.000016  0.000000
                  ***Gradient check signals convergence***
              ***Rediagonalizing the Fockian in SOSCF/NRSCF***

               *****************************************************
               *                     SUCCESS                       *
               *           SCF CONVERGED AFTER  15 CYCLES          *
               *****************************************************

Setting up the final grid:

General Integration Accuracy     IntAcc      ...  4.670
Radial Grid Type                 RadialGrid  ... Gauss-Chebyshev
Angular Grid (max. acc.)         AngularGrid ... Lebedev-302
Angular grid pruning method      GridPruning ... 3 (G Style)
Weight generation scheme         WeightScheme... Becke
Basis function cutoff            BFCut       ...    1.0000e-11
Integration weight cutoff        WCut        ...    1.0000e-14
Grids for H and He will be reduced by one unit

# of grid points (after initial pruning)     ...  96060 (   0.0 sec)
# of grid points (after weights+screening)   ...  88024 (   0.1 sec)
nearest neighbour list constructed           ...    0.0 sec
Grid point re-assignment to atoms done       ...    0.0 sec
Grid point division into batches done        ...    0.4 sec
Reduced shell lists constructed in    0.6 sec

Total number of grid points                  ...    88024
Total number of batches                      ...     1386
Average number of points per batch           ...       63
Average number of grid points per atom       ...     4401
Average number of shells per batch           ...    59.80 (66.44%)
Average number of basis functions per batch  ...   121.01 (63.69%)
Average number of large shells per batch     ...    44.75 (74.84%)
Average number of large basis fcns per batch ...    92.26 (76.24%)
Maximum spatial batch extension              ...   4.15,  8.48, 22.06 au
Average spatial batch extension              ...   0.22,  0.24,  0.32 au

Final grid set up in    0.8 sec
Final integration                            ... done (   0.4 sec)
Change in XC energy                          ...    -0.000541951
Integrated number of electrons               ...    76.000031543
Previous integrated no of electrons          ...    75.997614874
Old exchange energy                            =    -12.814564206 Eh
New exchange energy                            =    -12.813990546 Eh
Exchange energy change after final integration =      0.000573660 Eh
Total energy after final integration           =   -490.477857722 Eh
Final COS-X integration done in                =     2.746 sec

----------------
TOTAL SCF ENERGY
----------------

Total Energy       :         -490.47785772 Eh          -13346.58104 eV

Components:
Nuclear Repulsion  :          496.42078132 Eh           13508.29621 eV
Electronic Energy  :         -986.89863904 Eh          -26854.87724 eV
One Electron Energy:        -1650.31677916 Eh          -44907.40261 eV
Two Electron Energy:          663.41814012 Eh           18052.52537 eV

Virial components:
Potential Energy   :         -978.05485959 Eh          -26614.22577 eV
Kinetic Energy     :          487.57700187 Eh           13267.64473 eV
Virial Ratio       :            2.00594953


DFT components:
N(Alpha)           :       38.000015771606 electrons
N(Beta)            :       38.000015771606 electrons
N(Total)           :       76.000031543212 electrons
E(X)               :      -50.966656618021 Eh       
E(C)               :       -3.039078399281 Eh       
E(XC)              :      -54.005735017302 Eh       

---------------
SCF CONVERGENCE
---------------

  Last Energy change         ...    1.7235e-09  Tolerance :   1.0000e-08
  Last MAX-Density change    ...    4.2107e-13  Tolerance :   1.0000e-07
  Last RMS-Density change    ...    2.8612e-15  Tolerance :   5.0000e-09
  Last Orbital Gradient      ...    1.5582e-06  Tolerance :   1.0000e-05
  Last Orbital Rotation      ...    6.2795e-06  Tolerance :   1.0000e-05

             **** THE GBW FILE WAS UPDATED (AT-v/e/frag_15_c00001.gbw) ****
             **** DENSITY FILE WAS UPDATED (AT-v/e/frag_15_c00001.scfp.tmp) ****
             **** ENERGY FILE WAS UPDATED (AT-v/e/frag_15_c00001.en.tmp) ****
----------------
ORBITAL ENERGIES
----------------

  NO   OCC          E(Eh)            E(eV) 
   0   2.0000     -19.106477      -519.9137 
   1   2.0000     -14.361499      -390.7963 
   2   2.0000     -14.335951      -390.1010 
   3   2.0000     -14.330944      -389.9648 
   4   2.0000     -14.308748      -389.3608 
   5   2.0000     -10.281529      -279.7746 
   6   2.0000     -10.256425      -279.0915 
   7   2.0000     -10.246213      -278.8136 
   8   2.0000     -10.215869      -277.9879 
   9   2.0000     -10.188469      -277.2423 
  10   2.0000      -1.028421       -27.9847 
  11   2.0000      -0.970628       -26.4121 
  12   2.0000      -0.922358       -25.0986 
  13   2.0000      -0.890537       -24.2327 
  14   2.0000      -0.878739       -23.9117 
  15   2.0000      -0.727943       -19.8083 
  16   2.0000      -0.682221       -18.5642 
  17   2.0000      -0.613635       -16.6979 
  18   2.0000      -0.597127       -16.2487 
  19   2.0000      -0.546189       -14.8626 
  20   2.0000      -0.540878       -14.7180 
  21   2.0000      -0.530252       -14.4289 
  22   2.0000      -0.501737       -13.6530 
  23   2.0000      -0.467571       -12.7233 
  24   2.0000      -0.459510       -12.5039 
  25   2.0000      -0.440720       -11.9926 
  26   2.0000      -0.431267       -11.7354 
  27   2.0000      -0.412785       -11.2325 
  28   2.0000      -0.406266       -11.0551 
  29   2.0000      -0.396331       -10.7847 
  30   2.0000      -0.390705       -10.6316 
  31   2.0000      -0.353505        -9.6194 
  32   2.0000      -0.297108        -8.0847 
  33   2.0000      -0.289898        -7.8885 
  34   2.0000      -0.261873        -7.1259 
  35   2.0000      -0.258311        -7.0290 
  36   2.0000      -0.251659        -6.8480 
  37   2.0000      -0.188958        -5.1418 
  38   0.0000      -0.074320        -2.0223 
  39   0.0000       0.001818         0.0495 
  40   0.0000       0.030321         0.8251 
  41   0.0000       0.056812         1.5459 
  42   0.0000       0.068388         1.8609 
  43   0.0000       0.087631         2.3846 
  44   0.0000       0.102222         2.7816 
  45   0.0000       0.106516         2.8985 
  46   0.0000       0.120168         3.2699 
  47   0.0000       0.125747         3.4217 
  48   0.0000       0.139547         3.7973 
  49   0.0000       0.179063         4.8726 
  50   0.0000       0.184247         5.0136 
  51   0.0000       0.204421         5.5626 
  52   0.0000       0.241832         6.5806 
  53   0.0000       0.273870         7.4524 
  54   0.0000       0.287125         7.8131 
  55   0.0000       0.319446         8.6926 
  56   0.0000       0.324657         8.8344 
  57   0.0000       0.353560         9.6209 
  58   0.0000       0.379300        10.3213 
  59   0.0000       0.409927        11.1547 
  60   0.0000       0.435467        11.8497 
  61   0.0000       0.456565        12.4238 
  62   0.0000       0.459478        12.5030 
  63   0.0000       0.475448        12.9376 
  64   0.0000       0.478056        13.0086 
  65   0.0000       0.481895        13.1130 
  66   0.0000       0.492670        13.4062 
  67   0.0000       0.498190        13.5564 
  68   0.0000       0.520818        14.1722 
  69   0.0000       0.535001        14.5581 
  70   0.0000       0.547017        14.8851 
  71   0.0000       0.553123        15.0512 
  72   0.0000       0.567555        15.4440 
  73   0.0000       0.583556        15.8794 
  74   0.0000       0.601572        16.3696 
  75   0.0000       0.612133        16.6570 
  76   0.0000       0.625075        17.0092 
  77   0.0000       0.626729        17.0542 
  78   0.0000       0.649055        17.6617 
  79   0.0000       0.661760        18.0074 
  80   0.0000       0.695336        18.9211 
  81   0.0000       0.727925        19.8079 
  82   0.0000       0.735731        20.0203 
  83   0.0000       0.753606        20.5067 
  84   0.0000       0.762251        20.7419 
  85   0.0000       0.770067        20.9546 
  86   0.0000       0.785217        21.3669 
  87   0.0000       0.811465        22.0811 
  88   0.0000       0.819259        22.2932 
  89   0.0000       0.847309        23.0564 
  90   0.0000       0.862999        23.4834 
  91   0.0000       0.878133        23.8952 
  92   0.0000       0.907974        24.7072 
  93   0.0000       0.915831        24.9210 
  94   0.0000       0.935379        25.4530 
  95   0.0000       0.940659        25.5966 
  96   0.0000       0.955478        25.9999 
  97   0.0000       0.960569        26.1384 
  98   0.0000       0.977791        26.6070 
  99   0.0000       0.983123        26.7521 
 100   0.0000       0.999279        27.1918 
 101   0.0000       1.029469        28.0133 
 102   0.0000       1.050870        28.5956 
 103   0.0000       1.078190        29.3390 
 104   0.0000       1.089852        29.6564 
 105   0.0000       1.100032        29.9334 
 106   0.0000       1.124046        30.5869 
 107   0.0000       1.148928        31.2639 
 108   0.0000       1.189176        32.3591 
 109   0.0000       1.203581        32.7511 
 110   0.0000       1.209408        32.9097 
 111   0.0000       1.224797        33.3284 
 112   0.0000       1.242307        33.8049 
 113   0.0000       1.259346        34.2686 
 114   0.0000       1.265835        34.4451 
 115   0.0000       1.367522        37.2122 
 116   0.0000       1.379461        37.5370 
 117   0.0000       1.387655        37.7600 
 118   0.0000       1.413149        38.4537 
 119   0.0000       1.427764        38.8514 
 120   0.0000       1.450380        39.4668 
 121   0.0000       1.467135        39.9228 
 122   0.0000       1.482900        40.3518 
 123   0.0000       1.501165        40.8488 
 124   0.0000       1.510664        41.1073 
 125   0.0000       1.514423        41.2095 
 126   0.0000       1.551130        42.2084 
 127   0.0000       1.585463        43.1426 
 128   0.0000       1.600136        43.5419 
 129   0.0000       1.622277        44.1444 
 130   0.0000       1.640570        44.6422 
 131   0.0000       1.651461        44.9385 
 132   0.0000       1.660383        45.1813 
 133   0.0000       1.671070        45.4721 
 134   0.0000       1.677086        45.6358 
 135   0.0000       1.704523        46.3824 
 136   0.0000       1.712454        46.5982 
 137   0.0000       1.720175        46.8083 
 138   0.0000       1.722140        46.8618 
 139   0.0000       1.731807        47.1249 
 140   0.0000       1.770812        48.1862 
 141   0.0000       1.778846        48.4049 
 142   0.0000       1.789736        48.7012 
 143   0.0000       1.837203        49.9928 
 144   0.0000       1.861263        50.6475 
 145   0.0000       1.873579        50.9827 
 146   0.0000       1.894558        51.5535 
 147   0.0000       1.908901        51.9438 
 148   0.0000       1.985562        54.0299 
 149   0.0000       2.016688        54.8769 
 150   0.0000       2.060915        56.0803 
 151   0.0000       2.076097        56.4935 
 152   0.0000       2.111058        57.4448 
 153   0.0000       2.123293        57.7777 
 154   0.0000       2.147059        58.4245 
 155   0.0000       2.169434        59.0333 
 156   0.0000       2.211269        60.1717 
 157   0.0000       2.243344        61.0445 
 158   0.0000       2.255743        61.3819 
 159   0.0000       2.261998        61.5521 
 160   0.0000       2.273147        61.8555 
 161   0.0000       2.287017        62.2329 
 162   0.0000       2.327350        63.3304 
 163   0.0000       2.355169        64.0874 
 164   0.0000       2.364263        64.3349 
 165   0.0000       2.388146        64.9847 
 166   0.0000       2.408766        65.5458 
 167   0.0000       2.449650        66.6584 
 168   0.0000       2.480792        67.5058 
 169   0.0000       2.499492        68.0146 
 170   0.0000       2.533191        68.9316 
 171   0.0000       2.554972        69.5243 
 172   0.0000       2.593219        70.5651 
 173   0.0000       2.615605        71.1742 
 174   0.0000       2.644078        71.9490 
 175   0.0000       2.704759        73.6002 
 176   0.0000       2.727201        74.2109 
 177   0.0000       2.735214        74.4290 
 178   0.0000       2.765595        75.2557 
 179   0.0000       2.817264        76.6617 
 180   0.0000       2.882858        78.4466 
 181   0.0000       2.915044        79.3224 
 182   0.0000       2.929220        79.7081 
 183   0.0000       3.044453        82.8438 
 184   0.0000       3.089735        84.0760 
 185   0.0000       3.129013        85.1448 
 186   0.0000       3.219865        87.6170 
 187   0.0000       3.292375        89.5901 
 188   0.0000       3.475307        94.5679 
 189   0.0000       3.527605        95.9910 
-------
TIMINGS
-------

Total SCF time: 0 days 0 hours 0 min 29 sec 

Total time                  ....      30.000 sec
Sum of individual times     ....      29.895 sec  ( 99.7%)

Fock matrix formation       ....      27.953 sec  ( 93.2%)
  Split-RI-J                ....       4.548 sec  ( 16.3% of F)
  Chain of spheres X        ....      21.471 sec  ( 76.8% of F)
  COS-X 1 center corr.      ....       0.000 sec  (  0.0% of F)
  XC integration            ....       1.870 sec  (  6.7% of F)
    Basis function eval.    ....       0.685 sec  ( 36.6% of XC)
    Density eval.           ....       0.311 sec  ( 16.6% of XC)
    XC-Functional eval.     ....       0.079 sec  (  4.3% of XC)
    XC-Potential eval.      ....       0.591 sec  ( 31.6% of XC)
Diagonalization             ....       0.073 sec  (  0.2%)
Density matrix formation    ....       0.031 sec  (  0.1%)
Population analysis         ....       0.000 sec  (  0.0%)
Initial guess               ....       0.310 sec  (  1.0%)
Orbital Transformation      ....       0.000 sec  (  0.0%)
Orbital Orthonormalization  ....       0.000 sec  (  0.0%)
DIIS solution               ....       0.024 sec  (  0.1%)
SOSCF solution              ....       0.152 sec  (  0.5%)
Grid generation             ....       1.351 sec  (  4.5%)


-------------------------------------------------------------------------------
                          DFT DISPERSION CORRECTION                            
                                                                               
                              DFTD3 V3.1  Rev 1                                
                          USING Becke-Johnson damping                          
-------------------------------------------------------------------------------
The B3LYP functional is recognized
Active option DFTDOPT                   ...         4   

molecular C6(AA) [au] = 3955.445989 


            DFT-D V3
 parameters
 s6 scaling factor         :     1.0000 
 a1 scaling factor         :     0.3981 
 s8 scaling factor         :     1.9889 
 a2 scaling factor         :     4.4211 
 ad hoc parameters k1-k3   :    16.0000     1.3333    -4.0000 

 Edisp/kcal,au: -18.231547576129  -0.029053817329 
 E6   /kcal   :  -8.960936463 
 E8   /kcal   :  -9.270611113 
 % E8         :  50.849282399 

-------------------------   ----------------
Dispersion correction           -0.029053817
-------------------------   ----------------


-------------------------   --------------------
FINAL SINGLE POINT ENERGY      -490.506911538875
-------------------------   --------------------



           ************************************************************
           *        Program running with 6 parallel MPI-processes     *
           *              working on a common directory               *
           ************************************************************
------------------------------------------------------------------------------
                         ORCA SCF GRADIENT CALCULATION
------------------------------------------------------------------------------

Gradient of the Kohn-Sham DFT energy:
Kohn-Sham wavefunction type      ... RKS
Hartree-Fock exchange scaling    ...    0.200
Number of operators              ...    1
Number of atoms                  ...   20
Basis set dimensions             ...  190
Integral neglect threshold       ... 2.5e-11
Integral primitive cutoff        ... 2.5e-12

Nuclear repulsion gradient       ... done
One Electron Gradient            ... done
Pre-screening matrix             ... done
RI-J gradient                    ... done
COSX-gradient                    ... done
Exchange-correlation gradient    ... done
Dispersion correction            ... done

------------------
CARTESIAN GRADIENT
------------------

   1   C   :    0.000025745    0.011094995    0.000873412
   2   N   :   -0.005278205   -0.005042454   -0.003003544
   3   C   :   -0.014688036   -0.009444721    0.001112650
   4   C   :   -0.017495517    0.038349903   -0.004054910
   5   N   :    0.011162318   -0.009975767   -0.001999998
   6   N   :    0.003909913   -0.025351237    0.000943846
   7   C   :    0.009800980    0.004593040    0.000444621
   8   N   :    0.002726198    0.009154748   -0.002662711
   9   C   :   -0.009325997   -0.014352506    0.008465009
  10   O   :    0.001587866    0.002593970   -0.003534710
  11   H   :    0.002086277   -0.001969079    0.000619082
  12   H   :    0.002608138   -0.001798917   -0.000465308
  13   H   :   -0.004933888   -0.010256429    0.001579812
  14   H   :    0.000672900    0.000063191    0.003775427
  15   H   :    0.006293609    0.006896814    0.001551588
  16   H   :   -0.000853819    0.003386850    0.000512416
  17   H   :    0.000372598    0.002365198   -0.000375024
  18   H   :    0.004354727    0.001499441   -0.000887307
  19   H   :   -0.002118073   -0.006447741    0.000862717
  20   H   :    0.008319240    0.003471050   -0.002120339

Difference to translation invariance:
           :   -0.0007730256   -0.0011696491    0.0016367270

Norm of the cartesian gradient     ...    0.0648283703
RMS gradient                       ...    0.0083693066
MAX gradient                       ...    0.0383499033

-------
TIMINGS
-------

Total SCF gradient time            ...        6.159 sec

One electron gradient       ....       0.122 sec  (  2.0%)
Prescreening matrices       ....       0.132 sec  (  2.1%)
RI-J Coulomb gradient       ....       0.972 sec  ( 15.8%)
COSX gradient               ....       2.895 sec  ( 47.0%)
XC gradient                 ....       1.518 sec  ( 24.6%)
------------------------------------------------------------------------------
                         ORCA GEOMETRY RELAXATION STEP
------------------------------------------------------------------------------

Reading the OPT-File                    .... done
Getting information on internals        .... done
Copying old internal coords+grads       .... done
Making the new internal coordinates     .... (new redundants).... done
Validating the new internal coordinates .... (new redundants).... done
Calculating the B-matrix                .... done
Calculating the G,G- and P matrices     .... done
Transforming gradient to internals      .... done
Projecting the internal gradient        .... done
Number of atoms                         ....  20
Number of internal coordinates          ....  97
Current Energy                          ....  -490.506911539 Eh
Current gradient norm                   ....     0.064828370 Eh/bohr
Maximum allowed component of the step   ....  0.300
Current trust radius                    ....  0.300
Evaluating the initial hessian          ....  (Almloef) done
Projecting the Hessian                  .... done
Forming the augmented Hessian           .... done
Diagonalizing the augmented Hessian     .... done
Last element of RFO vector              ....  0.970598067
Lowest eigenvalues of augmented Hessian:
 -0.008299097  0.017894376  0.021873269  0.024147243  0.028513068
Length of the computed step             ....  0.247997638
The final length of the internal step   ....  0.247997638
Converting the step to cartesian space:
 Initial RMS(Int)=    0.0251803451
Transforming coordinates:
 Iter   0:  RMS(Cart)=    0.0623800737 RMS(Int)=    1.0992050304
 Iter   1:  RMS(Cart)=    0.0026372980 RMS(Int)=    0.0017154957
 Iter   2:  RMS(Cart)=    0.0002322672 RMS(Int)=    0.0000824572
 Iter   3:  RMS(Cart)=    0.0000234443 RMS(Int)=    0.0000147225
 Iter   4:  RMS(Cart)=    0.0000021386 RMS(Int)=    0.0000010020
 Iter   5:  RMS(Cart)=    0.0000001951 RMS(Int)=    0.0000001525
 Iter   6:  RMS(Cart)=    0.0000000198 RMS(Int)=    0.0000000112
done
Storing new coordinates                 .... done

                                .--------------------.
          ----------------------|Geometry convergence|-------------------------
          Item                value                   Tolerance       Converged
          ---------------------------------------------------------------------
          RMS gradient        0.0057012807            0.0020000000      NO
          MAX gradient        0.0244473436            0.0030000000      NO
          RMS step            0.0251803451            0.0200000000      NO
          MAX step            0.0986723697            0.0300000000      NO
          ........................................................
          Max(Bonds)      0.0522      Max(Angles)    2.93
          Max(Dihed)        5.36      Max(Improp)    0.00
          ---------------------------------------------------------------------

The optimization has not yet converged - more geometry cycles are needed


    ---------------------------------------------------------------------------
                         Redundant Internal Coordinates
                            (Angstroem and degrees)

        Definition                    Value    dE/dq     Step     New-Value
    ----------------------------------------------------------------------------
     1. B(N   1,C   0)                1.2886  0.005590 -0.0036    1.2850   
     2. B(C   2,N   1)                1.3822 -0.002240  0.0020    1.3842   
     3. B(C   3,C   2)                1.3576 -0.020212  0.0150    1.3726   
     4. B(N   4,C   3)                1.3827 -0.005306  0.0060    1.3887   
     5. B(N   5,C   3)                1.3798 -0.024447  0.0224    1.4023   
     6. B(C   6,N   5)                1.2867  0.013199 -0.0085    1.2783   
     7. B(C   8,N   7)                1.3604  0.008941 -0.0066    1.3538   
     8. B(O   9,C   8)                1.2231 -0.001528  0.0013    1.2244   
     9. B(H  10,C   0)                1.1053 -0.000707  0.0011    1.1063   
    10. B(H  11,C   0)                1.1008  0.002975 -0.0044    1.0964   
    11. B(H  12,C   2)                1.0821 -0.011223  0.0157    1.0978   
    12. B(H  13,N   4)                1.0189  0.001441 -0.0018    1.0171   
    13. B(H  14,N   4)                1.0206 -0.006324  0.0088    1.0294   
    14. B(H  14,O   9)                1.9974 -0.001059  0.0230    2.0204   
    15. B(H  15,C   6)                1.1008  0.000203 -0.0003    1.1005   
    16. B(H  16,C   6)                1.0995  0.001543 -0.0023    1.0973   
    17. B(H  17,N   7)                1.0108 -0.001097  0.0013    1.0121   
    18. B(H  18,H  14)                2.2102 -0.002204  0.0274    2.2376   
    19. B(H  18,N   5)                1.8991 -0.003408  0.0522    1.9513   
    20. B(H  18,N   7)                1.0255 -0.007310  0.0094    1.0349   
    21. B(H  19,C   8)                1.1025 -0.008509  0.0128    1.1153   
    22. A(H  10,C   0,H  11)          116.48 -0.002704    0.48    116.96   
    23. A(N   1,C   0,H  10)          124.28  0.003181   -0.52    123.76   
    24. A(N   1,C   0,H  11)          119.24 -0.000479    0.04    119.28   
    25. A(C   0,N   1,C   2)          116.80 -0.012923    1.64    118.44   
    26. A(C   3,C   2,H  12)          120.75 -0.003747    0.48    121.23   
    27. A(N   1,C   2,C   3)          122.01  0.009345   -1.29    120.72   
    28. A(N   1,C   2,H  12)          117.24 -0.005596    0.80    118.04   
    29. A(C   2,C   3,N   4)          117.09 -0.022542    2.93    120.02   
    30. A(N   4,C   3,N   5)          116.81  0.014689   -1.94    114.87   
    31. A(C   2,C   3,N   5)          126.10  0.007853   -0.99    125.11   
    32. A(C   3,N   4,H  14)          113.14 -0.009160    2.05    115.19   
    33. A(H  13,N   4,H  14)          112.57  0.001358    0.05    112.62   
    34. A(C   3,N   4,H  13)          110.73  0.003935   -0.59    110.14   
    35. A(C   3,N   5,C   6)          122.45 -0.002022    0.46    122.91   
    36. A(C   6,N   5,H  18)          126.47  0.007063   -1.40    125.06   
    37. A(C   3,N   5,H  18)          110.80 -0.005037    0.91    111.71   
    38. A(H  15,C   6,H  16)          115.56 -0.003769    0.67    116.23   
    39. A(N   5,C   6,H  16)          118.17  0.000220   -0.08    118.09   
    40. A(N   5,C   6,H  15)          126.26  0.003549   -0.59    125.67   
    41. A(H  17,N   7,H  18)          117.32 -0.003682    0.64    117.96   
    42. A(C   8,N   7,H  18)          117.96 -0.001523    0.31    118.27   
    43. A(C   8,N   7,H  17)          122.45  0.005050   -0.87    121.58   
    44. A(N   7,C   8,O   9)          123.55 -0.001351    0.33    123.87   
    45. A(O   9,C   8,H  19)          123.41  0.004465   -0.74    122.68   
    46. A(N   7,C   8,H  19)          113.04 -0.003122    0.42    113.46   
    47. A(C   8,O   9,H  14)          110.38 -0.000263    0.24    110.62   
    48. A(N   4,H  14,H  18)          110.22  0.000454    0.22    110.44   
    49. A(N   4,H  14,O   9)          161.50 -0.002114    1.30    162.80   
    50. A(O   9,H  14,H  18)           73.48  0.000540   -0.72     72.75   
    51. A(N   5,H  18,H  14)           74.85 -0.001527   -0.82     74.03   
    52. A(N   7,H  18,H  14)          113.69  0.002636   -0.27    113.42   
    53. A(N   5,H  18,N   7)          169.33 -0.001491    1.33    170.67   
    54. D(C   2,N   1,C   0,H  11)   -179.70  0.001168   -1.13   -180.83   
    55. D(C   2,N   1,C   0,H  10)     -0.10  0.000844   -0.81     -0.91   
    56. D(C   3,C   2,N   1,C   0)    179.99  0.000511   -1.02    178.97   
    57. D(H  12,C   2,N   1,C   0)     -0.19  0.001211   -2.02     -2.21   
    58. D(N   4,C   3,C   2,H  12)   -179.92  0.002856   -4.32   -184.24   
    59. D(N   5,C   3,C   2,N   1)    179.90  0.002518   -2.81    177.09   
    60. D(N   4,C   3,C   2,N   1)     -0.10  0.003578   -5.36     -5.46   
    61. D(N   5,C   3,C   2,H  12)      0.09  0.001796   -1.77     -1.69   
    62. D(H  14,N   4,C   3,N   5)    -35.14 -0.000289   -0.98    -36.13   
    63. D(H  14,N   4,C   3,C   2)    144.86 -0.001248    1.32    146.18   
    64. D(H  13,N   4,C   3,C   2)     17.40  0.001023    0.10     17.50   
    65. D(H  13,N   4,C   3,N   5)   -162.60  0.001982   -2.20   -164.81   
    66. D(H  18,N   5,C   3,C   2)   -174.21  0.001087   -0.76   -174.97   
    67. D(C   6,N   5,C   3,N   4)   -179.96  0.000499    1.35   -178.61   
    68. D(C   6,N   5,C   3,C   2)      0.03  0.001554   -1.18     -1.15   
    69. D(H  18,N   5,C   3,N   4)      5.80  0.000033    1.78      7.58   
    70. D(H  16,C   6,N   5,H  18)     -6.95 -0.000578    0.21     -6.74   
    71. D(H  16,C   6,N   5,C   3)    179.75 -0.000284    0.54    180.29   
    72. D(H  15,C   6,N   5,H  18)    172.90 -0.000538    0.18    173.08   
    73. D(H  15,C   6,N   5,C   3)     -0.40 -0.000244    0.51      0.10   
    74. D(H  19,C   8,N   7,H  18)   -172.47  0.001339   -0.93   -173.40   
    75. D(H  19,C   8,N   7,H  17)    -10.05  0.000062   -0.52    -10.57   
    76. D(O   9,C   8,N   7,H  18)      7.15  0.000095    0.53      7.68   
    77. D(O   9,C   8,N   7,H  17)    169.56 -0.001182    0.94    170.51   
    78. D(H  14,O   9,C   8,H  19)    168.32 -0.001070    0.85    169.17   
    79. D(H  14,O   9,C   8,N   7)    -11.26  0.000334   -0.77    -12.02   
    80. D(H  18,H  14,N   4,H  13)    167.73 -0.003809    1.20    168.92   
    81. D(H  18,H  14,N   4,C   3)     41.24 -0.002707    0.26     41.50   
    82. D(O   9,H  14,N   4,H  13)    -93.92 -0.002370    0.60    -93.32   
    83. D(N   4,H  14,O   9,C   8)    -96.68 -0.002231    1.30    -95.38   
    84. D(O   9,H  14,N   4,C   3)    139.59 -0.001268   -0.34    139.25   
    85. D(H  18,H  14,O   9,C   8)      7.75 -0.000138    0.45      8.20   
    86. D(N   5,H  18,H  14,O   9)    168.15 -0.000902    0.58    168.73   
    87. D(N   7,H  18,H  14,O   9)     -5.06  0.000257   -0.23     -5.29   
    88. D(N   7,H  18,H  14,N   4)    155.82 -0.001804    1.01    156.84   
    89. D(H  14,H  18,N   7,H  17)   -162.27 -0.000627   -0.12   -162.39   
    90. D(H  14,H  18,N   7,C   8)      1.06 -0.000303    0.00      1.06   
    91. D(N   5,H  18,N   7,H  17)     55.80  0.000470   -0.09     55.70   
    92. D(N   5,H  18,N   7,C   8)   -140.88  0.000794    0.03   -140.85   
    93. D(H  14,H  18,N   5,C   6)   -164.74  0.001210   -1.29   -166.03   
    94. D(H  14,H  18,N   5,C   3)      9.22  0.001011   -1.59      7.62   
    95. D(N   5,H  18,H  14,N   4)    -30.97 -0.002963    1.83    -29.14   
    96. D(N   7,H  18,N   5,C   6)    -20.54  0.000736   -1.56    -22.10   
    97. D(N   7,H  18,N   5,C   3)    153.42  0.000537   -1.86    151.56   
    ----------------------------------------------------------------------------

         *************************************************************
         *                GEOMETRY OPTIMIZATION CYCLE   2            *
         *************************************************************
---------------------------------
CARTESIAN COORDINATES (ANGSTROEM)
---------------------------------
  C      5.194408   -1.343343    0.015183
  N      3.913395   -1.441966   -0.009417
  C      3.164312   -0.280905   -0.092223
  C      1.793589   -0.332859   -0.142825
  N      1.147611   -1.559399   -0.225983
  N      0.944871    0.783164   -0.169514
  C      1.376900    1.985501   -0.127863
  N     -1.953798    0.137024    0.040897
  C     -2.410737   -1.087401    0.394412
  O     -1.684963   -2.021284    0.711397
  H      5.738122   -0.381466   -0.040678
  H      5.800854   -2.253259    0.094345
  H      3.698023    0.678420   -0.096029
  H      1.780211   -2.307420    0.047345
  H      0.240851   -1.610765    0.258700
  H      2.433961    2.285937   -0.069523
  H      0.641666    2.799728   -0.148456
  H     -2.568593    0.839808   -0.349513
  H     -0.933751    0.263184   -0.080030
  H     -3.523330   -1.164498    0.389075

----------------------------
CARTESIAN COORDINATES (A.U.)
----------------------------
  NO LB      ZA    FRAG     MASS         X           Y           Z
   0 C     6.0000    0    12.011    9.816009   -2.538551    0.028691
   1 N     7.0000    0    14.007    7.395245   -2.724920   -0.017796
   2 C     6.0000    0    12.011    5.979682   -0.530833   -0.174276
   3 C     6.0000    0    12.011    3.389391   -0.629012   -0.269900
   4 N     7.0000    0    14.007    2.168670   -2.946838   -0.427046
   5 N     7.0000    0    14.007    1.785547    1.479965   -0.320336
   6 C     6.0000    0    12.011    2.601964    3.752053   -0.241626
   7 N     7.0000    0    14.007   -3.692144    0.258937    0.077285
   8 C     6.0000    0    12.011   -4.555633   -2.054889    0.745331
   9 O     8.0000    0    15.999   -3.184119   -3.819672    1.344346
  10 H     1.0000    0     1.008   10.843480   -0.720866   -0.076870
  11 H     1.0000    0     1.008   10.962026   -4.258043    0.178285
  12 H     1.0000    0     1.008    6.988251    1.282027   -0.181468
  13 H     1.0000    0     1.008    3.364111   -4.360392    0.089469
  14 H     1.0000    0     1.008    0.455143   -3.043904    0.488871
  15 H     1.0000    0     1.008    4.599520    4.319795   -0.131379
  16 H     1.0000    0     1.008    1.212572    5.290719   -0.280542
  17 H     1.0000    0     1.008   -4.853938    1.587007   -0.660484
  18 H     1.0000    0     1.008   -1.764534    0.497346   -0.151235
  19 H     1.0000    0     1.008   -6.658129   -2.200583    0.735245

--------------------------------
INTERNAL COORDINATES (ANGSTROEM)
--------------------------------
 C      0   0   0     0.000000000000     0.00000000     0.00000000
 N      1   0   0     1.285039429655     0.00000000     0.00000000
 C      2   1   0     1.384212739808   118.43994381     0.00000000
 C      3   2   1     1.372640197888   120.72135675   178.96900180
 N      4   3   2     1.388742032472   120.00928097   354.52024467
 N      4   3   2     1.402334005870   125.09627745   177.11366545
 C      6   4   3     1.278279781818   122.91416955   358.88434615
 N      6   4   3     2.977256228384   114.53077839   186.77164993
 C      8   6   4     1.353876180880   122.91016152    12.36779692
 O      9   8   6     1.224485502763   123.86931352     3.09027224
 H      1   2   3     1.106324471097   123.75755797   359.08901560
 H      1   2   3     1.096353384022   119.28155577   179.17397241
 H      3   2   1     1.097800431520   118.04061322   357.78632217
 H      5   4   3     1.017067149746   110.13032668    17.52420957
 H      5   4   3     1.029450187624   115.18811725   146.21321308
 H      7   6   4     1.100474067005   125.67297392     0.10866989
 H      7   6   4     1.097250833221   118.09243272   180.29232950
 H      8   6   4     1.012076599127   114.42239747   204.13116155
 H      8   6   4     1.034909053555     6.10022215   330.87978322
 H      9   8   6     1.115273719624   113.45086053   182.01040784

---------------------------
INTERNAL COORDINATES (A.U.)
---------------------------
 C      0   0   0     0.000000000000     0.00000000     0.00000000
 N      1   0   0     2.428372593339     0.00000000     0.00000000
 C      2   1   0     2.615782989323   118.43994381     0.00000000
 C      3   2   1     2.593914054420   120.72135675   178.96900180
 N      4   3   2     2.624342112037   120.00928097   354.52024467
 N      4   3   2     2.650027219379   125.09627745   177.11366545
 C      6   4   3     2.415598710165   122.91416955   358.88434615
 N      6   4   3     5.626198902156   114.53077839   186.77164993
 C      8   6   4     2.558455201102   122.91016152    12.36779692
 O      9   8   6     2.313942255179   123.86931352     3.09027224
 H      1   2   3     2.090650265628   123.75755797   359.08901560
 H      1   2   3     2.071807641799   119.28155577   179.17397241
 H      3   2   1     2.074542165273   118.04061322   357.78632217
 H      5   4   3     1.921978372829   110.13032668    17.52420957
 H      5   4   3     1.945378923124   115.18811725   146.21321308
 H      7   6   4     2.079594604123   125.67297392     0.10866989
 H      7   6   4     2.073503575004   118.09243272   180.29232950
 H      8   6   4     1.912547598901   114.42239747   204.13116155
 H      8   6   4     1.955694684734     6.10022215   330.87978322
 H      9   8   6     2.107561894448   113.45086053   182.01040784



           ************************************************************
           *        Program running with 6 parallel MPI-processes     *
           *              working on a common directory               *
           ************************************************************
 One Electron integrals                  ... done
 Pre-screening matrix                    ... done


           ************************************************************
           *        Program running with 6 parallel MPI-processes     *
           *              working on a common directory               *
           ************************************************************

Diagonalization of the overlap matrix:
Smallest eigenvalue                        ... 1.208e-03
Time for diagonalization                   ...    0.009 sec
Threshold for overlap eigenvalues          ... 1.000e-08
Number of eigenvalues below threshold      ... 0
Time for construction of square roots      ...    0.004 sec
Total time needed                          ...    0.013 sec

-------------------
DFT GRID GENERATION
-------------------

General Integration Accuracy     IntAcc      ...  4.340
Radial Grid Type                 RadialGrid  ... Gauss-Chebyshev
Angular Grid (max. acc.)         AngularGrid ... Lebedev-110
Angular grid pruning method      GridPruning ... 3 (G Style)
Weight generation scheme         WeightScheme... Becke
Basis function cutoff            BFCut       ...    1.0000e-11
Integration weight cutoff        WCut        ...    1.0000e-14
Grids for H and He will be reduced by one unit

# of grid points (after initial pruning)     ...  24744 (   0.0 sec)
# of grid points (after weights+screening)   ...  23032 (   0.0 sec)
nearest neighbour list constructed           ...    0.0 sec
Grid point re-assignment to atoms done       ...    0.0 sec
Grid point division into batches done        ...    0.0 sec
Reduced shell lists constructed in    0.1 sec

Total number of grid points                  ...    23032
Total number of batches                      ...      371
Average number of points per batch           ...       62
Average number of grid points per atom       ...     1152
Average number of shells per batch           ...    61.57 (68.41%)
Average number of basis functions per batch  ...   125.38 (65.99%)
Average number of large shells per batch     ...    46.41 (75.38%)
Average number of large basis fcns per batch ...    95.81 (76.41%)
Maximum spatial batch extension              ...   3.40,  6.66, 22.50 au
Average spatial batch extension              ...   0.31,  0.35,  0.62 au

Time for grid setup =    0.138 sec

--------------------
COSX GRID GENERATION
--------------------

General Integration Accuracy     IntAcc      ...  3.340
Radial Grid Type                 RadialGrid  ... Gauss-Chebyshev
Angular Grid (max. acc.)         AngularGrid ... Lebedev-50
Angular grid pruning method      GridPruning ... 3 (G Style)
Weight generation scheme         WeightScheme... Becke
Basis function cutoff            BFCut       ...    1.0000e-11
Integration weight cutoff        WCut        ...    1.0000e-14
Grids for H and He will be reduced by one unit

# of grid points (after initial pruning)     ...   8944 (   0.0 sec)
# of grid points (after weights+screening)   ...   8378 (   0.0 sec)
nearest neighbour list constructed           ...    0.0 sec
Grid point re-assignment to atoms done       ...    0.0 sec
Grid point division into batches done        ...    0.0 sec
Reduced shell lists constructed in    0.0 sec

Total number of grid points                  ...     8378
Total number of batches                      ...      139
Average number of points per batch           ...       60
Average number of grid points per atom       ...      419
Average number of shells per batch           ...    61.92 (68.80%)
Average number of basis functions per batch  ...   126.24 (66.44%)
Average number of large shells per batch     ...    47.84 (77.26%)
Average number of large basis fcns per batch ...    99.20 (78.58%)
Maximum spatial batch extension              ...   3.29,  6.29, 23.45 au
Average spatial batch extension              ...   0.39,  0.49,  1.20 au

Overlap Fitting                  UseSFitting ... on
Constructing numerical overlap ... done (      0.0 sec)
Inverting numerical overlap    ... done (      0.0 sec)
[...]

# of grid points (after initial pruning)     ...  21314 (   0.0 sec)
# of grid points (after weights+screening)   ...  19886 (   0.0 sec)
nearest neighbour list constructed           ...    0.0 sec
Grid point re-assignment to atoms done       ...    0.0 sec
Grid point division into batches done        ...    0.0 sec
Reduced shell lists constructed in    0.1 sec

Total number of grid points                  ...    19886
Total number of batches                      ...      321
Average number of points per batch           ...       61
Average number of grid points per atom       ...      994
Average number of shells per batch           ...    61.67 (68.53%)
Average number of basis functions per batch  ...   125.49 (66.05%)
Average number of large shells per batch     ...    46.82 (75.91%)
Average number of large basis fcns per batch ...    96.89 (77.21%)
Maximum spatial batch extension              ...   4.59,  6.80, 16.53 au
Average spatial batch extension              ...   0.33,  0.36,  0.49 au

Overlap Fitting                  UseSFitting ... on
Constructing numerical overlap ... done (      0.0 sec)
Inverting numerical overlap    ... done (      0.0 sec)
Obtaining analytic overlap     ... done (      0.0 sec)
Final contraction and storage  ... done (      0.0 sec)

Time for X-Grid setup             =    0.404 sec
--------------
SCF ITERATIONS
--------------
ITER       Energy         Delta-E        Max-DP      RMS-DP      [F,P]     Damp
               ***  Starting incremental Fock matrix formation  ***
                      *** Initiating the SOSCF procedure ***
                      *** Re-Reading the Fockian *** 
                      *** Removing any level shift *** 
ITER      Energy       Delta-E        Grad      Rot      Max-DP    RMS-DP
  0   -490.49057358 -490.4905735774  0.001559  0.001559  0.004871  0.000130
               *** Restarting incremental Fock matrix formation ***
  1   -490.49085701  -0.0002834277  0.000734  0.002885  0.002226  0.000066
  2   -490.49089684  -0.0000398388  0.000211  0.001027  0.001144  0.000025
  3   -490.49089536   0.0000014818  0.000567  0.000684  0.000891  0.000014
  4   -490.49089861  -0.0000032433  0.000106  0.000205  0.000247  0.000006
  5   -490.49089853   0.0000000770  0.000089  0.000176  0.000148  0.000004
  6   -490.49089875  -0.0000002213  0.000011  0.000061  0.000077  0.000001
  7   -490.49089875   0.0000000040  0.000019  0.000036  0.000049  0.000001
                  ***Gradient check signals convergence***
              ***Rediagonalizing the Fockian in SOSCF/NRSCF***

               *****************************************************
               *                     SUCCESS                       *
               *           SCF CONVERGED AFTER   8 CYCLES          *
               *****************************************************

Setting up the final grid:

General Integration Accuracy     IntAcc      ...  4.670
Radial Grid Type                 RadialGrid  ... Gauss-Chebyshev
Angular Grid (max. acc.)         AngularGrid ... Lebedev-302
Angular grid pruning method      GridPruning ... 3 (G Style)
Weight generation scheme         WeightScheme... Becke
Basis function cutoff            BFCut       ...    1.0000e-11
Integration weight cutoff        WCut        ...    1.0000e-14
Grids for H and He will be reduced by one unit

# of grid points (after initial pruning)     ...  96060 (   0.0 sec)
# of grid points (after weights+screening)   ...  88199 (   0.1 sec)
nearest neighbour list constructed           ...    0.0 sec
Grid point re-assignment to atoms done       ...    0.0 sec
Grid point division into batches done        ...    0.4 sec
Reduced shell lists constructed in    0.6 sec

Total number of grid points                  ...    88199
Total number of batches                      ...     1391
Average number of points per batch           ...       63
Average number of grid points per atom       ...     4410
Average number of shells per batch           ...    60.06 (66.73%)
Average number of basis functions per batch  ...   122.02 (64.22%)
Average number of large shells per batch     ...    44.79 (74.58%)
Average number of large basis fcns per batch ...    92.39 (75.72%)
Maximum spatial batch extension              ...   3.93,  5.92, 18.27 au
Average spatial batch extension              ...   0.22,  0.23,  0.27 au

Final grid set up in    0.8 sec
Final integration                            ... done (   0.4 sec)
Change in XC energy                          ...    -0.000699457
Integrated number of electrons               ...    75.999918633
Previous integrated no of electrons          ...    75.997170867
Old exchange energy                            =    -12.807567304 Eh
New exchange energy                            =    -12.806859560 Eh
Exchange energy change after final integration =      0.000707745 Eh
Total energy after final integration           =   -490.490890466 Eh
Final COS-X integration done in                =     2.780 sec

----------------
TOTAL SCF ENERGY
----------------

Total Energy       :         -490.49089047 Eh          -13346.93567 eV

Components:
Nuclear Repulsion  :          494.30681516 Eh           13450.77226 eV
Electronic Energy  :         -984.79770563 Eh          -26797.70794 eV
One Electron Energy:        -1646.17424587 Eh          -44794.67855 eV
Two Electron Energy:          661.37654024 Eh           17996.97061 eV

Virial components:
Potential Energy   :         -977.90547948 Eh          -26610.16093 eV
Kinetic Energy     :          487.41458901 Eh           13263.22526 eV
Virial Ratio       :            2.00631147


DFT components:
N(Alpha)           :       37.999959316377 electrons
N(Beta)            :       37.999959316377 electrons
N(Total)           :       75.999918632754 electrons
E(X)               :      -50.939642511571 Eh       
E(C)               :       -3.036543554905 Eh       
E(XC)              :      -53.976186066476 Eh       

---------------
SCF CONVERGENCE
---------------

  Last Energy change         ...   -7.6845e-09  Tolerance :   1.0000e-08
  Last MAX-Density change    ...    5.9166e-14  Tolerance :   1.0000e-07
  Last RMS-Density change    ...    5.4642e-16  Tolerance :   5.0000e-09
  Last Orbital Gradient      ...    2.2731e-06  Tolerance :   1.0000e-05
  Last Orbital Rotation      ...    7.3142e-06  Tolerance :   1.0000e-05

             **** THE GBW FILE WAS UPDATED (AT-v/e/frag_15_c00001.gbw) ****
             **** DENSITY FILE WAS UPDATED (AT-v/e/frag_15_c00001.scfp.tmp) ****
             **** ENERGY FILE WAS UPDATED (AT-v/e/frag_15_c00001.en.tmp) ****
----------------
ORBITAL ENERGIES
----------------

  NO   OCC          E(Eh)            E(eV) 
   0   2.0000     -19.112392      -520.0746 
   1   2.0000     -14.358615      -390.7178 
   2   2.0000     -14.348889      -390.4531 
   3   2.0000     -14.320226      -389.6732 
   4   2.0000     -14.315569      -389.5464 
   5   2.0000     -10.289290      -279.9858 
   6   2.0000     -10.252648      -278.9887 
   7   2.0000     -10.248704      -278.8814 
   8   2.0000     -10.203277      -277.6453 
   9   2.0000     -10.184280      -277.1283 
  10   2.0000      -1.032863       -28.1056 
  11   2.0000      -0.966601       -26.3026 
  12   2.0000      -0.911553       -24.8046 
  13   2.0000      -0.903074       -24.5739 
  14   2.0000      -0.879162       -23.9232 
  15   2.0000      -0.725863       -19.7517 
  16   2.0000      -0.668962       -18.2034 
  17   2.0000      -0.618561       -16.8319 
  18   2.0000      -0.586029       -15.9467 
  19   2.0000      -0.548443       -14.9239 
  20   2.0000      -0.543032       -14.7767 
  21   2.0000      -0.527105       -14.3433 
  22   2.0000      -0.495868       -13.4932 
  23   2.0000      -0.476988       -12.9795 
  24   2.0000      -0.467000       -12.7077 
  25   2.0000      -0.442416       -12.0387 
  26   2.0000      -0.438989       -11.9455 
  27   2.0000      -0.411508       -11.1977 
  28   2.0000      -0.401652       -10.9295 
  29   2.0000      -0.393611       -10.7107 
  30   2.0000      -0.378201       -10.2914 
  31   2.0000      -0.344278        -9.3683 
  32   2.0000      -0.317459        -8.6385 
  33   2.0000      -0.278630        -7.5819 
  34   2.0000      -0.269852        -7.3430 
  35   2.0000      -0.258651        -7.0383 
  36   2.0000      -0.246193        -6.6993 
  37   2.0000      -0.183307        -4.9880 
  38   0.0000      -0.052619        -1.4318 
  39   0.0000       0.004140         0.1126 
  40   0.0000       0.025829         0.7028 
  41   0.0000       0.052792         1.4365 
  42   0.0000       0.073860         2.0098 
  43   0.0000       0.089631         2.4390 
  44   0.0000       0.095330         2.5940 
  45   0.0000       0.105663         2.8752 
  46   0.0000       0.113963         3.1011 
  47   0.0000       0.125726         3.4212 
  48   0.0000       0.134465         3.6590 
  49   0.0000       0.159245         4.3333 
  50   0.0000       0.173518         4.7217 
  51   0.0000       0.200802         5.4641 
  52   0.0000       0.232573         6.3286 
  53   0.0000       0.266804         7.2601 
  54   0.0000       0.284179         7.7329 
  55   0.0000       0.313214         8.5230 
  56   0.0000       0.327082         8.9003 
  57   0.0000       0.349142         9.5006 
  58   0.0000       0.367511        10.0005 
  59   0.0000       0.414309        11.2739 
  60   0.0000       0.445585        12.1250 
  61   0.0000       0.449727        12.2377 
  62   0.0000       0.469670        12.7804 
  63   0.0000       0.471742        12.8368 
  64   0.0000       0.480397        13.0723 
  65   0.0000       0.484961        13.1965 
  66   0.0000       0.500576        13.6214 
  67   0.0000       0.510334        13.8869 
  68   0.0000       0.515471        14.0267 
  69   0.0000       0.524136        14.2625 
  70   0.0000       0.536478        14.5983 
  71   0.0000       0.554145        15.0791 
  72   0.0000       0.562699        15.3118 
  73   0.0000       0.569268        15.4906 
  74   0.0000       0.596617        16.2348 
  75   0.0000       0.614759        16.7284 
  76   0.0000       0.633614        17.2415 
  77   0.0000       0.639962        17.4143 
  78   0.0000       0.647487        17.6190 
  79   0.0000       0.670695        18.2505 
  80   0.0000       0.683887        18.6095 
  81   0.0000       0.710255        19.3270 
  82   0.0000       0.725312        19.7367 
  83   0.0000       0.740954        20.1624 
  84   0.0000       0.756728        20.5916 
  85   0.0000       0.765438        20.8286 
  86   0.0000       0.783306        21.3148 
  87   0.0000       0.791573        21.5398 
  88   0.0000       0.795665        21.6511 
  89   0.0000       0.840409        22.8687 
  90   0.0000       0.860899        23.4263 
  91   0.0000       0.872035        23.7293 
  92   0.0000       0.879036        23.9198 
  93   0.0000       0.894402        24.3379 
  94   0.0000       0.942884        25.6572 
  95   0.0000       0.949143        25.8275 
  96   0.0000       0.959746        26.1160 
  97   0.0000       0.974796        26.5255 
  98   0.0000       0.980348        26.6766 
  99   0.0000       1.000312        27.2199 
 100   0.0000       1.027735        27.9661 
 101   0.0000       1.042483        28.3674 
 102   0.0000       1.047699        28.5093 
 103   0.0000       1.080690        29.4071 
 104   0.0000       1.095671        29.8147 
 105   0.0000       1.103219        30.0201 
 106   0.0000       1.118402        30.4333 
 107   0.0000       1.128920        30.7195 
 108   0.0000       1.190309        32.3899 
 109   0.0000       1.195536        32.5322 
 110   0.0000       1.207155        32.8484 
 111   0.0000       1.230249        33.4768 
 112   0.0000       1.255887        34.1744 
 113   0.0000       1.262629        34.3579 
 114   0.0000       1.299827        35.3701 
 115   0.0000       1.356346        36.9081 
 116   0.0000       1.359273        36.9877 
 117   0.0000       1.400400        38.1068 
 118   0.0000       1.409802        38.3627 
 119   0.0000       1.423651        38.7395 
 120   0.0000       1.456075        39.6218 
 121   0.0000       1.461696        39.7748 
 122   0.0000       1.475435        40.1486 
 123   0.0000       1.484513        40.3957 
 124   0.0000       1.497807        40.7574 
 125   0.0000       1.524004        41.4703 
 126   0.0000       1.545681        42.0601 
 127   0.0000       1.587829        43.2070 
 128   0.0000       1.602204        43.5982 
 129   0.0000       1.616752        43.9940 
 130   0.0000       1.620665        44.1005 
 131   0.0000       1.646820        44.8123 
 132   0.0000       1.663092        45.2550 
 133   0.0000       1.673802        45.5465 
 134   0.0000       1.680001        45.7152 
 135   0.0000       1.690652        46.0050 
 136   0.0000       1.700133        46.2630 
 137   0.0000       1.707798        46.4715 
 138   0.0000       1.713919        46.6381 
 139   0.0000       1.736803        47.2608 
 140   0.0000       1.780041        48.4374 
 141   0.0000       1.792036        48.7638 
 142   0.0000       1.802309        49.0433 
 143   0.0000       1.839700        50.0608 
 144   0.0000       1.857129        50.5351 
 145   0.0000       1.871537        50.9271 
 146   0.0000       1.877646        51.0933 
 147   0.0000       1.880328        51.1663 
 148   0.0000       1.952097        53.1193 
 149   0.0000       2.001232        54.4563 
 150   0.0000       2.029202        55.2174 
 151   0.0000       2.073242        56.4158 
 152   0.0000       2.099430        57.1284 
 153   0.0000       2.121337        57.7245 
 154   0.0000       2.137670        58.1690 
 155   0.0000       2.153170        58.5907 
 156   0.0000       2.222354        60.4733 
 157   0.0000       2.233471        60.7758 
 158   0.0000       2.245101        61.0923 
 159   0.0000       2.263873        61.6031 
 160   0.0000       2.268419        61.7268 
 161   0.0000       2.287982        62.2591 
 162   0.0000       2.328045        63.3493 
 163   0.0000       2.344906        63.8081 
 164   0.0000       2.356493        64.1234 
 165   0.0000       2.379890        64.7601 
 166   0.0000       2.393108        65.1198 
 167   0.0000       2.420377        65.8618 
 168   0.0000       2.472132        67.2701 
 169   0.0000       2.488925        67.7271 
 170   0.0000       2.523223        68.6604 
 171   0.0000       2.546804        69.3021 
 172   0.0000       2.577674        70.1421 
 173   0.0000       2.624989        71.4296 
 174   0.0000       2.644478        71.9599 
 175   0.0000       2.709837        73.7384 
 176   0.0000       2.718880        73.9845 
 177   0.0000       2.742865        74.6371 
 178   0.0000       2.747052        74.7511 
 179   0.0000       2.794365        76.0385 
 180   0.0000       2.880963        78.3950 
 181   0.0000       2.906267        79.0835 
 182   0.0000       2.951622        80.3177 
 183   0.0000       3.049746        82.9878 
 184   0.0000       3.084125        83.9233 
 185   0.0000       3.125366        85.0455 
 186   0.0000       3.154870        85.8484 
 187   0.0000       3.304329        89.9154 
 188   0.0000       3.465193        94.2927 
 189   0.0000       3.516784        95.6966 
-------
TIMINGS
-------

Total SCF time: 0 days 0 hours 0 min 19 sec 

Total time                  ....      19.221 sec
Sum of individual times     ....      19.134 sec  ( 99.5%)

Fock matrix formation       ....      17.588 sec  ( 91.5%)
  Split-RI-J                ....       2.644 sec  ( 15.0% of F)
  Chain of spheres X        ....      13.721 sec  ( 78.0% of F)
  COS-X 1 center corr.      ....       0.000 sec  (  0.0% of F)
  XC integration            ....       1.183 sec  (  6.7% of F)
    Basis function eval.    ....       0.448 sec  ( 37.9% of XC)
    Density eval.           ....       0.199 sec  ( 16.8% of XC)
    XC-Functional eval.     ....       0.053 sec  (  4.5% of XC)
    XC-Potential eval.      ....       0.387 sec  ( 32.7% of XC)
Diagonalization             ....       0.011 sec  (  0.1%)
Density matrix formation    ....       0.026 sec  (  0.1%)
Population analysis         ....       0.000 sec  (  0.0%)
Initial guess               ....       0.011 sec  (  0.1%)
Orbital Transformation      ....       0.000 sec  (  0.0%)
Orbital Orthonormalization  ....       0.007 sec  (  0.0%)
DIIS solution               ....       0.002 sec  (  0.0%)
SOSCF solution              ....       0.149 sec  (  0.8%)
Grid generation             ....       1.346 sec  (  7.0%)


-------------------------------------------------------------------------------
                          DFT DISPERSION CORRECTION                            
                                                                               
                              DFTD3 V3.1  Rev 1                                
                          USING Becke-Johnson damping                          
-------------------------------------------------------------------------------
The B3LYP functional is recognized
Active option DFTDOPT                   ...         4   

molecular C6(AA) [au] = 3958.829609 


            DFT-D V3
 parameters
 s6 scaling factor         :     1.0000 
 a1 scaling factor         :     0.3981 
 s8 scaling factor         :     1.9889 
 a2 scaling factor         :     4.4211 
 ad hoc parameters k1-k3   :    16.0000     1.3333    -4.0000 

 Edisp/kcal,au: -17.968903847565  -0.028635267950 
 E6   /kcal   :  -8.826460813 
 E8   /kcal   :  -9.142443035 
 % E8         :  50.879247351 

-------------------------   ----------------
Dispersion correction           -0.028635268
-------------------------   ----------------


-------------------------   --------------------
FINAL SINGLE POINT ENERGY      -490.519525733641
-------------------------   --------------------

                                *** OPTIMIZATION RUN DONE ***

                            ***************************************
                            *     ORCA property calculations      *
                            ***************************************

                                    ---------------------
                                    Active property flags
                                    ---------------------
   (+) Dipole Moment


------------------------------------------------------------------------------
                       ORCA ELECTRIC PROPERTIES CALCULATION
------------------------------------------------------------------------------

Dipole Moment Calculation                       ... on
Quadrupole Moment Calculation                   ... off
Polarizability Calculation                      ... off
GBWName                                         ... AT-v/e/frag_15_c00001.gbw
Electron density file                           ... AT-v/e/frag_15_c00001.scfp.tmp
The origin for moment calculation is the CENTER OF MASS  = ( 2.086997, -0.984850  0.040717)

-------------
DIPOLE MOMENT
-------------
                                X             Y             Z
Electronic contribution:     -2.45960      -2.32169       0.01461
Nuclear contribution   :      1.77979       4.02658       0.00631
                        -----------------------------------------
Total Dipole Moment    :     -0.67980       1.70489       0.02092
                        -----------------------------------------
Magnitude (a.u.)       :      1.83555
Magnitude (Debye)      :      4.66559


Timings for individual modules:

Sum of individual times         ...      455.308 sec (=   7.588 min)
GTO integral calculation        ...       12.350 sec (=   0.206 min)   2.7 %
SCF iterations                  ...      356.231 sec (=   5.937 min)  78.2 %
SCF Gradient evaluation         ...       84.789 sec (=   1.413 min)  18.6 %
Geometry relaxation             ...        1.939 sec (=   0.032 min)   0.4 %
                             ****ORCA TERMINATED NORMALLY****
TOTAL RUN TIME: 0 days 0 hours 7 minutes 38 seconds 830 msec
