
                                 *****************
                                 * O   R   C   A *
                                 *****************

           --- An Ab Initio, DFT and Semiempirical electronic structure package ---

                  #######################################################
                  #                        -***-                        #
                  #  Department of molecular theory and spectroscopy    #
                  #              Directorship: Frank Neese              #
                  # Max Planck Institute for Chemical Energy Conversion #
                  #                  D-45470 Muelheim/Ruhr              #
                  #                       Germany                       #
                  #                                                     #
                  #                  All rights reserved                #
                  #                        -***-                        #
                  #######################################################


                         Program Version 4.0.1.2 - RELEASE -


 With contributions from (in alphabetic order):
   Daniel Aravena         : Magnetic Properties
   Michael Atanasov       : Ab Initio Ligand Field Theory
   Ute Becker             : Parallelization
   Martin Brehm           : Molecular dynamics
   Dmytro Bykov           : SCF Hessian
   Vijay G. Chilkuri      : MRCI spin determinant printing
   Dipayan Datta          : RHF DLPNO-CCSD density
   Achintya Kumar Dutta   : EOM-CC, STEOM-CC
   Dmitry Ganyushin       : Spin-Orbit,Spin-Spin,Magnetic field MRCI
   Yang Guo               : DLPNO-NEVPT2, CIM, IAO-localization
   Andreas Hansen         : Spin unrestricted coupled pair/coupled cluster methods
   Lee Huntington         : MR-EOM, pCC
   Robert Izsak           : Overlap fitted RIJCOSX, COSX-SCS-MP3, EOM
   Christian Kollmar      : KDIIS, OOCD, Brueckner-CCSD(T), CCSD density
   Simone Kossmann        : Meta GGA functionals, TD-DFT gradient, OOMP2, MP2 Hessian
   Martin Krupicka        : AUTO-CI
   Dagmar Lenk            : GEPOL surface
   Dimitrios Liakos       : Extrapolation schemes; parallel MDCI
   Dimitrios Manganas     : ROCIS; embedding schemes
   Dimitrios Pantazis     : SARC Basis sets
   Taras Petrenko         : DFT Hessian,TD-DFT gradient, ASA, ECA, R-Raman, ABS, FL, XAS/XES, NRVS
   Peter Pinski           : DLPNO-MP2
   Christoph Reimann      : Effective Core Potentials
   Marius Retegan         : Local ZFS, SOC
   Christoph Riplinger    : Optimizer, TS searches, QM/MM, DLPNO-CCSD(T), (RO)-DLPNO pert. Triples
   Tobias Risthaus        : Range-separated hybrids, TD-DFT gradient, RPA, STAB
   Michael Roemelt        : Restricted open shell CIS
   Masaaki Saitow         : Open-shell DLPNO
   Barbara Sandhoefer     : DKH picture change effects
   Kantharuban Sivalingam : CASSCF convergence, NEVPT2, FIC-MRCI
   Georgi Stoychev        : AutoAux
   Boris Wezisla          : Elementary symmetry handling
   Frank Wennmohs         : Technical directorship


 We gratefully acknowledge several colleagues who have allowed us to
 interface, adapt or use parts of their codes:
   Stefan Grimme, W. Hujo, H. Kruse,             : VdW corrections, initial TS optimization,
                  C. Bannwarth                     DFT functionals, gCP, sTDA/sTD-DF
   Ed Valeev                                     : LibInt (2-el integral package), F12 methods
   Garnet Chan, S. Sharma, J. Yang, R. Olivares  : DMRG
   Ulf Ekstrom                                   : XCFun DFT Library
   Mihaly Kallay                                 : mrcc  (arbitrary order and MRCC methods)
   Andreas Klamt, Michael Diedenhofen            : otool_cosmo (COSMO solvation model)
   Jiri Pittner, Ondrej Demel                    : Mk-CCSD
   Frank Weinhold                                : gennbo (NPA and NBO analysis)
   Christopher J. Cramer and Donald G. Truhlar   : smd solvation model


 Your calculation uses the libint2 library for the computation of 2-el integrals
 For citations please refer to: http://libint.valeyev.net

 This ORCA versions uses:
   CBLAS   interface :  Fast vector & matrix operations
   LAPACKE interface :  Fast linear algebra routines
   SCALAPACK package :  Parallel linear algebra routines


Your calculation utilizes the atom-pairwise dispersion correction
with the Becke-Johnson damping scheme (D3BJ)
Cite in your paper:
S.Grimme, S.Ehrlich, L.Goerigk, J Comput Chem, (2011), 32, 1456–1465 
S.Grimme, J.Antony, S.Ehrlich and H.Krieg, J.Chem.Phys., 132, (2010), 154104 
   

Your calculation utilizes the basis: cc-pVDZ 
       H, B-Ne : Obtained from the ccRepo (grant-hill.group.shef.ac.uk/ccrepo) Feb. 2017
                 T. H. Dunning, Jr., J. Chem. Phys. 90, 1007 (1989)
            He : Obtained from the ccRepo (grant-hill.group.shef.ac.uk/ccrepo) Feb. 2017
                 D. E. Woon, T. H. Dunning, Jr., J. Chem. Phys. 100, 2975 (1994)
  Li-Be, Na-Mg : Obtained from the ccRepo (grant-hill.group.shef.ac.uk/ccrepo) Feb. 2017
                 B. P. Prascher, D. E. Woon, K. A. Peterson, T. H. Dunning, Jr., A. K. Wilson, Theor. Chem. Acc. 128, 69 (2011)
         Al-Ar : Obtained from the ccRepo (grant-hill.group.shef.ac.uk/ccrepo) Feb. 2017
                 D. E. Woon, T. H. Dunning, Jr., J. Chem. Phys. 98, 1358 (1993)
            Ca : Obtained from the Peterson Research Group Website (tyr0.chem.wsu.edu/~kipeters) Feb. 2017
                 J. Koput, K. A. Peterson, J. Phys. Chem. 106, 9595 (2002)
         Sc-Zn : Obtained from the ccRepo (grant-hill.group.shef.ac.uk/ccrepo) Feb. 2017
                 N. B. Balabanov, K. A. Peterson, J. Chem. Phys. 123, 064107 (2005)
                 N. B. Balabanov, K. A. Peterson, J. Chem. Phys. 125, 074110 (2006)
         Ga-Kr : Obtained from the ccRepo (grant-hill.group.shef.ac.uk/ccrepo) Feb. 2017
                 A. K. Wilson, D. E. Woon, K. A. Peterson, T. H. Dunning, Jr., J. Chem. Phys. 110, 7667 (1999)

Your calculation utilizes the auxiliary basis: def2/J
   F. Weigend, Phys. Chem. Chem. Phys. 8, 1057 (2006).

================================================================================
                                        WARNINGS
                       Please study these warnings very carefully!
================================================================================

Warning: TCutStore was < 0. Adjusted to Thresh (uncritical)

WARNING: Geometry Optimization
  ===> : Switching off AutoStart
         For restart on a previous wavefunction, please use MOREAD

INFO   : the flag for use of LIBINT has been found!

================================================================================
                                       INPUT FILE
================================================================================
NAME = AT-v/e/frag_09_c00001.com
|  1> %pal nprocs 6 end
|  2> %maxcore 1000
|  3> ! b3lyp TIGHTSCF nopop D3BJ
|  4> ! cc-pvdz def2/J RIJCOSX
|  5> ! Opt
|  6> 
|  7> %geom
|  8> maxiter 60
|  9> TolE 1e-4
| 10> TolRMSG 2e-3
| 11> TolMaxG 3e-3
| 12> TolRMSD 2e-2
| 13> TolMaxD 3e-2
| 14> end
| 15> 
| 16> *xyz 0 1
| 17> C 1.5757 -0.6994 0.0255
| 18> N 1.0583 -1.9243 -0.1975
| 19> N 0.855 0.3604 0.1227
| 20> N -3.8275 1.6344 -0.0632
| 21> C -2.471 1.6192 -0.0547
| 22> O -1.8513 2.6748 -0.1214
| 23> N -1.8603 0.402 0.0284
| 24> C -2.4008 -0.8556 0.1062
| 25> O -1.7391 -1.8868 0.1783
| 26> H 2.6761 -0.6805 0.1069
| 27> H 1.545 -2.721 0.1925
| 28> H 0.0422 -1.9886 -0.0745
| 29> H 1.4737 1.1708 0.2717
| 30> H -4.2966 1.0559 0.6185
| 31> H -4.185 2.5838 -0.0696
| 32> H -0.835 0.4378 0.0269
| 33> H -3.5003 -0.8772 0.084
| 34> *
| 35> 
| 36> 
| 37>                          ****END OF INPUT****
================================================================================

                       *****************************
                       * Geometry Optimization Run *
                       *****************************

Geometry optimization settings:
Update method            Update   .... BFGS
Choice of coordinates    CoordSys .... Redundant Internals
Initial Hessian          InHess   .... Almoef's Model

Convergence Tolerances:
Energy Change            TolE     ....  1.0000e-04 Eh
Max. Gradient            TolMAXG  ....  3.0000e-03 Eh/bohr
RMS Gradient             TolRMSG  ....  2.0000e-03 Eh/bohr
Max. Displacement        TolMAXD  ....  3.0000e-02 bohr
RMS Displacement         TolRMSD  ....  2.0000e-02 bohr

------------------------------------------------------------------------------
                        ORCA OPTIMIZATION COORDINATE SETUP
------------------------------------------------------------------------------

The optimization will be done in new redundant internal coordinates
Making redundant internal coordinates   ...  (new redundants) done
Evaluating the initial hessian          ...  (Almloef) done
Evaluating the coordinates              ...  done
Calculating the B-matrix                .... done
Calculating the G-matrix                .... done
Diagonalizing the G-matrix              .... done
Small eigenvalue found = 2.674e-02
The first mode is                       ....   25
The number of degrees of freedom        ....   45

    -----------------------------------------------------------------
                    Redundant Internal Coordinates


    -----------------------------------------------------------------
         Definition                    Initial Value    Approx d2E/dq
    -----------------------------------------------------------------
      1. B(N   1,C   0)                  1.3483         0.652326   
      2. B(N   2,C   0)                  1.2853         0.822044   
      3. B(C   4,N   3)                  1.3566         0.632622   
      4. B(O   5,C   4)                  1.2259         1.022650   
      5. B(N   6,C   4)                  1.3643         0.614904   
      6. B(C   7,N   6)                  1.3710         0.599964   
      7. B(O   8,C   7)                  1.2274         1.017076   
      8. B(H   9,C   0)                  1.1036         0.342591   
      9. B(H  10,N   1)                  1.0118         0.429881   
     10. B(H  11,N   1)                  1.0255         0.408704   
     11. B(H  11,O   8)                  1.8020         0.023581   
     12. B(H  12,N   2)                  1.0304         0.401455   
     13. B(H  13,N   3)                  1.0097         0.433234   
     14. B(H  14,N   3)                  1.0145         0.425616   
     15. B(H  15,N   6)                  1.0259         0.408118   
     16. B(H  15,N   2)                  1.6945         0.035006   
     17. B(H  16,C   7)                  1.0999         0.347193   
     18. A(N   1,C   0,N   2)          123.1226         0.454973   
     19. A(N   2,C   0,H   9)          122.6435         0.364863   
     20. A(N   1,C   0,H   9)          114.2306         0.350795   
     21. A(H  10,N   1,H  11)          112.3959         0.300194   
     22. A(C   0,N   1,H  11)          114.6672         0.358288   
     23. A(C   0,N   1,H  10)          117.8412         0.361384   
     24. A(C   0,N   2,H  12)          108.8292         0.371611   
     25. A(C   0,N   2,H  15)          126.3434         0.251700   
     26. A(H  12,N   2,H  15)          124.8273         0.208233   
     27. A(C   4,N   3,H  14)          111.2776         0.358890   
     28. A(C   4,N   3,H  13)          116.9954         0.359976   
     29. A(H  13,N   3,H  14)          112.1313         0.302516   
     30. A(N   3,C   4,N   6)          117.2552         0.429326   
     31. A(N   3,C   4,O   5)          119.7018         0.470854   
     32. A(O   5,C   4,N   6)          123.0430         0.468407   
     33. A(C   4,N   6,C   7)          130.1903         0.425268   
     34. A(C   7,N   6,H  15)          115.2188         0.353150   
     35. A(C   4,N   6,H  15)          114.5899         0.354624   
     36. A(N   6,C   7,O   8)          124.1566         0.465834   
     37. A(O   8,C   7,H  16)          121.5738         0.379356   
     38. A(N   6,C   7,H  16)          114.2637         0.346661   
     39. A(C   7,O   8,H  11)          124.8999         0.245127   
     40. A(N   1,H  11,O   8)          173.0666         0.198476   
     41. A(N   2,H  15,N   6)          174.3083         0.208678   
     42. D(H  10,N   1,C   0,H   9)     31.6702         0.034749   
     43. D(H  11,N   1,C   0,H   9)    167.4535         0.034749   
     44. D(H  10,N   1,C   0,N   2)   -148.9789         0.034749   
     45. D(H  11,N   1,C   0,N   2)    -13.1955         0.034749   
     46. D(H  12,N   2,C   0,H   9)      0.5246         0.058004   
     47. D(H  15,N   2,C   0,N   1)      1.2948         0.058004   
     48. D(H  12,N   2,C   0,N   1)   -178.7726         0.058004   
     49. D(H  15,N   2,C   0,H   9)   -179.4081         0.058004   
     50. D(N   6,C   4,N   3,H  14)    176.5047         0.032512   
     51. D(N   6,C   4,N   3,H  13)     45.8036         0.032512   
     52. D(O   5,C   4,N   3,H  14)     -3.5485         0.032512   
     53. D(O   5,C   4,N   3,H  13)   -134.2496         0.032512   
     54. D(H  15,N   6,C   4,N   3)    179.7041         0.030578   
     55. D(C   7,N   6,C   4,O   5)   -179.8588         0.030578   
     56. D(C   7,N   6,C   4,N   3)      0.0861         0.030578   
     57. D(H  15,N   6,C   4,O   5)     -0.2407         0.030578   
     58. D(H  16,C   7,N   6,H  15)   -178.7017         0.029004   
     59. D(H  16,C   7,N   6,C   4)      0.9144         0.029004   
     60. D(O   8,C   7,N   6,H  15)      0.4236         0.029004   
     61. D(O   8,C   7,N   6,C   4)   -179.9603         0.029004   
     62. D(H  11,O   8,C   7,H  16)    168.4496         0.085183   
     63. D(H  11,O   8,C   7,N   6)    -10.6144         0.085183   
     64. D(N   1,H  11,O   8,C   7)     19.1605         0.001762   
     65. D(O   8,H  11,N   1,H  10)    141.7823         0.187253   
     66. D(O   8,H  11,N   1,C   0)      3.6147         0.187253   
     67. D(N   2,H  15,N   6,C   7)    -32.2279         0.186581   
     68. D(N   2,H  15,N   6,C   4)    148.0946         0.186581   
     69. D(N   6,H  15,N   2,H  12)   -136.4662         0.002179   
     70. D(N   6,H  15,N   2,C   0)     43.4561         0.002179   
    -----------------------------------------------------------------

Number of atoms                         .... 17
Number of degrees of freedom            .... 70

         *************************************************************
         *                GEOMETRY OPTIMIZATION CYCLE   1            *
         *************************************************************
---------------------------------
CARTESIAN COORDINATES (ANGSTROEM)
---------------------------------
  C      1.575700   -0.699400    0.025500
  N      1.058300   -1.924300   -0.197500
  N      0.855000    0.360400    0.122700
  N     -3.827500    1.634400   -0.063200
  C     -2.471000    1.619200   -0.054700
  O     -1.851300    2.674800   -0.121400
  N     -1.860300    0.402000    0.028400
  C     -2.400800   -0.855600    0.106200
  O     -1.739100   -1.886800    0.178300
  H      2.676100   -0.680500    0.106900
  H      1.545000   -2.721000    0.192500
  H      0.042200   -1.988600   -0.074500
  H      1.473700    1.170800    0.271700
  H     -4.296600    1.055900    0.618500
  H     -4.185000    2.583800   -0.069600
  H     -0.835000    0.437800    0.026900
  H     -3.500300   -0.877200    0.084000

----------------------------
CARTESIAN COORDINATES (A.U.)
----------------------------
  NO LB      ZA    FRAG     MASS         X           Y           Z
   0 C     6.0000    0    12.011    2.977641   -1.321674    0.048188
   1 N     7.0000    0    14.007    1.999897   -3.636400   -0.373221
   2 N     7.0000    0    14.007    1.615716    0.681057    0.231869
   3 N     7.0000    0    14.007   -7.232927    3.088568   -0.119431
   4 C     6.0000    0    12.011   -4.669513    3.059845   -0.103368
   5 O     8.0000    0    15.999   -3.498450    5.054639   -0.229413
   6 N     7.0000    0    14.007   -3.515458    0.759670    0.053668
   7 C     6.0000    0    12.011   -4.536855   -1.616850    0.200689
   8 O     8.0000    0    15.999   -3.286423   -3.565535    0.336938
   9 H     1.0000    0     1.008    5.057096   -1.285959    0.202012
  10 H     1.0000    0     1.008    2.919627   -5.141945    0.363772
  11 H     1.0000    0     1.008    0.079746   -3.757909   -0.140785
  12 H     1.0000    0     1.008    2.784889    2.212491    0.513439
  13 H     1.0000    0     1.008   -8.119397    1.995362    1.168796
  14 H     1.0000    0     1.008   -7.908504    4.882674   -0.131525
  15 H     1.0000    0     1.008   -1.577921    0.827322    0.050834
  16 H     1.0000    0     1.008   -6.614608   -1.657668    0.158737

--------------------------------
INTERNAL COORDINATES (ANGSTROEM)
--------------------------------
 C      0   0   0     0.000000000000     0.00000000     0.00000000
 N      1   0   0     1.348262500406     0.00000000     0.00000000
 N      1   2   0     1.285314113359   123.12258072     0.00000000
 N      3   1   2     4.856278519607   138.94426798     0.17663486
 C      4   3   1     1.356611786769    14.68922307   196.13425538
 O      5   4   3     1.225874520495   119.70180331   183.50326953
 N      5   4   6     1.364344509279   117.25522292   180.05320751
 C      7   5   4     1.371040061413   130.19030114     0.08610334
 O      8   7   5     1.227362513685   124.15655668   180.03972914
 H      1   2   3     1.103568452793   114.23062450   180.64901292
 H      2   1   3     1.011784453330   117.84119456   211.02113935
 H      2   1   3     1.025535323624   114.66722116   346.80452630
 H      3   1   2     1.030407128275   108.82924896   181.22744708
 H      4   3   1     1.009669228015   105.77291660    54.63422045
 H      4   3   1     1.014498679151   125.84037494   188.02165279
 H      7   5   4     1.025925913504   114.58988231   179.70414582
 H      8   7   5     1.099936202695   114.26372992     0.91441131

---------------------------
INTERNAL COORDINATES (A.U.)
---------------------------
 C      0   0   0     0.000000000000     0.00000000     0.00000000
 N      1   0   0     2.547846882403     0.00000000     0.00000000
 N      1   2   0     2.428891670312   123.12258072     0.00000000
 N      3   1   2     9.177036432102   138.94426798     0.17663486
 C      4   3   1     2.563624747043    14.68922307   196.13425538
 O      5   4   3     2.316567118288   119.70180331   183.50326953
 N      5   4   6     2.578237474857   117.25522292   180.05320751
 C      7   5   4     2.590890234706   130.19030114     0.08610334
 O      8   7   5     2.319379017906   124.15655668   180.03972914
 H      1   2   3     2.085442145814   114.23062450   180.64901292
 H      2   1   3     1.911995523353   117.84119456   211.02113935
 H      2   1   3     1.937980902311   114.66722116   346.80452630
 H      3   1   2     1.947187278880   108.82924896   181.22744708
 H      4   3   1     1.907998326796   105.77291660    54.63422045
 H      4   3   1     1.917124666821   125.84037494   188.02165279
 H      7   5   4     1.938719010216   114.58988231   179.70414582
 H      8   7   5     2.078578187880   114.26372992     0.91441131

---------------------
BASIS SET INFORMATION
---------------------
There are 4 groups of distinct atoms

 Group   1 Type C   : 17s4p1d contracted to 3s2p1d pattern {881/31/1}
 Group   2 Type N   : 17s4p1d contracted to 3s2p1d pattern {881/31/1}
 Group   3 Type O   : 17s4p1d contracted to 3s2p1d pattern {881/31/1}
 Group   4 Type H   : 4s1p contracted to 2s1p pattern {31/1}

Atom   0C    basis set group =>   1
Atom   1N    basis set group =>   2
Atom   2N    basis set group =>   2
Atom   3N    basis set group =>   2
Atom   4C    basis set group =>   1
Atom   5O    basis set group =>   3
Atom   6N    basis set group =>   2
Atom   7C    basis set group =>   1
Atom   8O    basis set group =>   3
Atom   9H    basis set group =>   4
Atom  10H    basis set group =>   4
Atom  11H    basis set group =>   4
Atom  12H    basis set group =>   4
Atom  13H    basis set group =>   4
Atom  14H    basis set group =>   4
Atom  15H    basis set group =>   4
Atom  16H    basis set group =>   4
-------------------------------
AUXILIARY BASIS SET INFORMATION
-------------------------------
There are 4 groups of distinct atoms

 Group   1 Type C   : 12s5p4d2f1g contracted to 6s4p3d1f1g pattern {711111/2111/211/2/1}
 Group   2 Type N   : 12s5p4d2f1g contracted to 6s4p3d1f1g pattern {711111/2111/211/2/1}
 Group   3 Type O   : 12s5p4d2f1g contracted to 6s4p3d1f1g pattern {711111/2111/211/2/1}
 Group   4 Type H   : 5s2p1d contracted to 3s1p1d pattern {311/2/1}

Atom   0C    basis set group =>   1
Atom   1N    basis set group =>   2
Atom   2N    basis set group =>   2
Atom   3N    basis set group =>   2
Atom   4C    basis set group =>   1
Atom   5O    basis set group =>   3
Atom   6N    basis set group =>   2
Atom   7C    basis set group =>   1
Atom   8O    basis set group =>   3
Atom   9H    basis set group =>   4
Atom  10H    basis set group =>   4
Atom  11H    basis set group =>   4
Atom  12H    basis set group =>   4
Atom  13H    basis set group =>   4
Atom  14H    basis set group =>   4
Atom  15H    basis set group =>   4
Atom  16H    basis set group =>   4


           ************************************************************
           *        Program running with 6 parallel MPI-processes     *
           *              working on a common directory               *
           ************************************************************
------------------------------------------------------------------------------
                           ORCA GTO INTEGRAL CALCULATION
                           -- RI-GTO INTEGRALS CHOSEN --
------------------------------------------------------------------------------

                         BASIS SET STATISTICS AND STARTUP INFO

Gaussian basis set:
 # of primitive gaussian shells          ...  238
 # of primitive gaussian functions       ...  362
 # of contracted shells                  ...   78
 # of contracted basis functions         ...  166
 Highest angular momentum                ...    2
 Maximum contraction depth               ...    8
Auxiliary gaussian basis set:
 # of primitive gaussian shells          ...  280
 # of primitive gaussian functions       ...  758
 # of contracted shells                  ...  175
 # of contracted aux-basis functions     ...  529
 Highest angular momentum                ...    4
 Maximum contraction depth               ...    7
Ratio of auxiliary to basis functions    ...  3.19
Integral package used                  ... LIBINT
 One Electron integrals                  ... done
 Ordering auxiliary basis shells         ... done
 Integral threshhold             Thresh  ...  2.500e-11
 Primitive cut-off               TCut    ...  2.500e-12
 Pre-screening matrix                    ... done
 Shell pair data                         ... 
 Ordering of the shell pairs             ... done (   0.001 sec) 2807 of 3081 pairs
 Determination of significant pairs      ... done (   0.000 sec)
 Creation of shell pair data             ... done (   0.001 sec)
 Storage of shell pair data              ... done (   0.002 sec)
 Shell pair data done in (   0.004 sec)
 Computing two index integrals           ... done
 Cholesky decomposition of the V-matrix  ... done


Timings:
 Total evaluation time                   ...   0.378 sec (  0.006 min)
 One electron matrix time                ...   0.043 sec (  0.001 min) = 11.3%
 Schwartz matrix evaluation time         ...   0.285 sec (  0.005 min) = 75.4%
 Two index repulsion integral time       ...   0.018 sec (  0.000 min) =  4.6%
 Cholesky decomposition of V             ...   0.009 sec (  0.000 min) =  2.3%
 Three index repulsion integral time     ...   0.000 sec (  0.000 min) =  0.0%



           ************************************************************
           *        Program running with 6 parallel MPI-processes     *
           *              working on a common directory               *
           ************************************************************
-------------------------------------------------------------------------------
                                 ORCA SCF
-------------------------------------------------------------------------------

------------
SCF SETTINGS
------------
Hamiltonian:
 Density Functional     Method          .... DFT(GTOs)
 Exchange Functional    Exchange        .... B88
   X-Alpha parameter    XAlpha          ....  0.666667
   Becke's b parameter  XBeta           ....  0.004200
 Correlation Functional Correlation     .... LYP
 LDA part of GGA corr.  LDAOpt          .... VWN-5
 Gradients option       PostSCFGGA      .... off
 Hybrid DFT is turned on
   Fraction HF Exchange ScalHFX         ....  0.200000
   Scaling of DF-GGA-X  ScalDFX         ....  0.720000
   Scaling of DF-GGA-C  ScalDFC         ....  0.810000
   Scaling of DF-LDA-C  ScalLDAC        ....  1.000000
   Perturbative correction              ....  0.000000
   NL short-range parameter             ....  4.800000
 RI-approximation to the Coulomb term is turned on
   Number of auxiliary basis functions  .... 529
   RIJ-COSX (HFX calculated with COS-X)).... on


General Settings:
 Integral files         IntName         .... AT-v/e/frag_09_c00001
 Hartree-Fock type      HFTyp           .... RHF
 Total Charge           Charge          ....    0
 Multiplicity           Mult            ....    1
 Number of Electrons    NEL             ....   70
 Basis Dimension        Dim             ....  166
 Nuclear Repulsion      ENuc            ....    446.8695435011 Eh

Convergence Acceleration:
 DIIS                   CNVDIIS         .... on
   Start iteration      DIISMaxIt       ....    12
   Startup error        DIISStart       ....  0.200000
   # of expansion vecs  DIISMaxEq       ....     5
   Bias factor          DIISBfac        ....   1.050
   Max. coefficient     DIISMaxC        ....  10.000
 Newton-Raphson         CNVNR           .... off
 SOSCF                  CNVSOSCF        .... on
   Start iteration      SOSCFMaxIt      ....   150
   Startup grad/error   SOSCFStart      ....  0.003300
 Level Shifting         CNVShift        .... on
   Level shift para.    LevelShift      ....    0.2500
   Turn off err/grad.   ShiftErr        ....    0.0010
 Zerner damping         CNVZerner       .... off
 Static damping         CNVDamp         .... on
   Fraction old density DampFac         ....    0.7000
   Max. Damping (<1)    DampMax         ....    0.9800
   Min. Damping (>=0)   DampMin         ....    0.0000
   Turn off err/grad.   DampErr         ....    0.1000
 Fernandez-Rico         CNVRico         .... off

SCF Procedure:
 Maximum # iterations   MaxIter         ....   125
 SCF integral mode      SCFMode         .... Direct
   Integral package                     .... LIBINT
 Reset frequeny         DirectResetFreq ....    20
 Integral Threshold     Thresh          ....  2.500e-11 Eh
 Primitive CutOff       TCut            ....  2.500e-12 Eh

Convergence Tolerance:
 Convergence Check Mode ConvCheckMode   .... Total+1el-Energy
 Convergence forced     ConvForced      .... 0
 Energy Change          TolE            ....  1.000e-08 Eh
 1-El. energy change                    ....  1.000e-05 Eh
 Orbital Gradient       TolG            ....  1.000e-05
 Orbital Rotation angle TolX            ....  1.000e-05
 DIIS Error             TolErr          ....  5.000e-07


Diagonalization of the overlap matrix:
Smallest eigenvalue                        ... 4.945e-03
Time for diagonalization                   ...    0.007 sec
Threshold for overlap eigenvalues          ... 1.000e-08
Number of eigenvalues below threshold      ... 0
Time for construction of square roots      ...    0.003 sec
Total time needed                          ...    0.010 sec

-------------------
DFT GRID GENERATION
-------------------

General Integration Accuracy     IntAcc      ...  4.340
Radial Grid Type                 RadialGrid  ... Gauss-Chebyshev
Angular Grid (max. acc.)         AngularGrid ... Lebedev-110
Angular grid pruning method      GridPruning ... 3 (G Style)
Weight generation scheme         WeightScheme... Becke
Basis function cutoff            BFCut       ...    1.0000e-11
Integration weight cutoff        WCut        ...    1.0000e-14
Grids for H and He will be reduced by one unit

# of grid points (after initial pruning)     ...  21560 (   0.0 sec)
# of grid points (after weights+screening)   ...  20151 (   0.0 sec)
nearest neighbour list constructed           ...    0.0 sec
Grid point re-assignment to atoms done       ...    0.0 sec
Grid point division into batches done        ...    0.0 sec
Reduced shell lists constructed in    0.1 sec

Total number of grid points                  ...    20151
Total number of batches                      ...      323
Average number of points per batch           ...       62
Average number of grid points per atom       ...     1185
Average number of shells per batch           ...    55.85 (71.61%)
Average number of basis functions per batch  ...   115.71 (69.70%)
Average number of large shells per batch     ...    41.15 (73.67%)
Average number of large basis fcns per batch ...    84.20 (72.77%)
Maximum spatial batch extension              ...  14.27,  9.79, 16.71 au
Average spatial batch extension              ...   0.37,  0.35,  0.54 au

Time for grid setup =    0.116 sec

------------------------------
INITIAL GUESS: MODEL POTENTIAL
------------------------------
Loading Hartree-Fock densities                     ... done
Calculating cut-offs                               ... done
Setting up the integral package                    ... done
Initializing the effective Hamiltonian             ... done
Starting the Coulomb interaction                   ... done (   0.0 sec)
Reading the grid                                   ... done
Mapping shells                                     ... done
Starting the XC term evaluation                    ... done (   0.1 sec)
  promolecular density results
     # of electrons  =     70.006696100
     EX              =    -60.516361144
     EC              =     -2.417263529
     EX+EC           =    -62.933624673
Transforming the Hamiltonian                       ... done (   0.0 sec)
Diagonalizing the Hamiltonian                      ... done (   0.0 sec)
Back transforming the eigenvectors                 ... done (   0.0 sec)
Now organizing SCF variables                       ... done
                      ------------------
                      INITIAL GUESS DONE (   0.4 sec)
                      ------------------
--------------------
COSX GRID GENERATION
--------------------

General Integration Accuracy     IntAcc      ...  3.340
Radial Grid Type                 RadialGrid  ... Gauss-Chebyshev
Angular Grid (max. acc.)         AngularGrid ... Lebedev-50
Angular grid pruning method      GridPruning ... 3 (G Style)
Weight generation scheme         WeightScheme... Becke
Basis function cutoff            BFCut       ...    1.0000e-11
Integration weight cutoff        WCut        ...    1.0000e-14
Grids for H and He will be reduced by one unit

# of grid points (after initial pruning)     ...   7724 (   0.0 sec)
# of grid points (after weights+screening)   ...   7262 (   0.0 sec)
nearest neighbour list constructed           ...    0.0 sec
Grid point re-assignment to atoms done       ...    0.0 sec
Grid point division into batches done        ...    0.0 sec
Reduced shell lists constructed in    0.0 sec

Total number of grid points                  ...     7262
Total number of batches                      ...      122
Average number of points per batch           ...       59
Average number of grid points per atom       ...      427
Average number of shells per batch           ...    56.45 (72.38%)
Average number of basis functions per batch  ...   116.91 (70.43%)
Average number of large shells per batch     ...    41.50 (73.51%)
Average number of large basis fcns per batch ...    84.41 (72.20%)
Maximum spatial batch extension              ...   5.32,  8.36, 20.51 au
Average spatial batch extension              ...   0.38,  0.42,  0.76 au

Overlap Fitting                  UseSFitting ... on
Constructing numerical overlap ... done (      0.0 sec)
Inverting numerical overlap    ... done (      0.0 sec)
Obtaining analytic overlap     ... done (      0.0 sec)
Final contraction and storage  ... done (      0.0 sec)


General Integration Accuracy     IntAcc      ...  3.670
Radial Grid Type                 RadialGrid  ... Gauss-Chebyshev
Angular Grid (max. acc.)         AngularGrid ... Lebedev-50
Angular grid pruning method      GridPruning ... 3 (G Style)
Weight generation scheme         WeightScheme... Becke
Basis function cutoff            BFCut       ...    1.0000e-11
Integration weight cutoff        WCut        ...    1.0000e-14
Grids for H and He will be reduced by one unit

# of grid points (after initial pruning)     ...   9890 (   0.0 sec)
# of grid points (after weights+screening)   ...   9283 (   0.0 sec)
nearest neighbour list constructed           ...    0.0 sec
Grid point re-assignment to atoms done       ...    0.0 sec
Grid point division into batches done        ...    0.0 sec
Reduced shell lists constructed in    0.0 sec

Total number of grid points                  ...     9283
Total number of batches                      ...      154
Average number of points per batch           ...       60
Average number of grid points per atom       ...      546
Average number of shells per batch           ...    57.00 (73.08%)
Average number of basis functions per batch  ...   118.56 (71.42%)
Average number of large shells per batch     ...    41.67 (73.10%)
Average number of large basis fcns per batch ...    84.63 (71.38%)
Maximum spatial batch extension              ...   5.58,  8.17, 17.07 au
Average spatial batch extension              ...   0.37,  0.42,  0.70 au

Overlap Fitting                  UseSFitting ... on
Constructing numerical overlap ... done (      0.0 sec)
Inverting numerical overlap    ... done (      0.0 sec)
Obtaining analytic overlap     ... done (      0.0 sec)
Final contraction and storage  ... done (      0.0 sec)


General Integration Accuracy     IntAcc      ...  4.010
Radial Grid Type                 RadialGrid  ... Gauss-Chebyshev
Angular Grid (max. acc.)         AngularGrid ... Lebedev-110
Angular grid pruning method      GridPruning ... 3 (G Style)
Weight generation scheme         WeightScheme... Becke
Basis function cutoff            BFCut       ...    1.0000e-11
Integration weight cutoff        WCut        ...    1.0000e-14
Grids for H and He will be reduced by one unit

# of grid points (after initial pruning)     ...  18464 (   0.0 sec)
# of grid points (after weights+screening)   ...  17274 (   0.0 sec)
nearest neighbour list constructed           ...    0.0 sec
Grid point re-assignment to atoms done       ...    0.0 sec
Grid point division into batches done        ...    0.0 sec
Reduced shell lists constructed in    0.1 sec

Total number of grid points                  ...    17274
Total number of batches                      ...      278
Average number of points per batch           ...       62
Average number of grid points per atom       ...     1016
Average number of shells per batch           ...    56.04 (71.85%)
Average number of basis functions per batch  ...   116.04 (69.90%)
Average number of large shells per batch     ...    41.10 (73.35%)
Average number of large basis fcns per batch ...    83.81 (72.23%)
Maximum spatial batch extension              ...  13.39,  9.49, 16.18 au
Average spatial batch extension              ...   0.39,  0.36,  0.55 au

Overlap Fitting                  UseSFitting ... on
Constructing numerical overlap ... done (      0.0 sec)
Inverting numerical overlap    ... done (      0.0 sec)
Obtaining analytic overlap     ... done (      0.0 sec)
Final contraction and storage  ... done (      0.0 sec)

Time for X-Grid setup             =    0.309 sec
--------------
SCF ITERATIONS
--------------
ITER       Energy         Delta-E        Max-DP      RMS-DP      [F,P]     Damp
               ***  Starting incremental Fock matrix formation  ***
  0   -487.9627654822   0.000000000000 0.10762131  0.00303632  0.2899066 0.7000
  1   -488.1747980639  -0.212032581753 0.06229566  0.00188571  0.1181176 0.7000
                               ***Turning on DIIS***
  2   -488.2457618806  -0.070963816726 0.07535573  0.00246307  0.0479869 0.0000
  3   -488.3675241694  -0.121762288790 0.03914185  0.00131069  0.0646363 0.0000
  4   -488.3919167566  -0.024392587132 0.01358711  0.00037966  0.0197762 0.0000
  5   -488.3939570945  -0.002040337980 0.00345260  0.00011887  0.0045633 0.0000
                      *** Initiating the SOSCF procedure ***
                           *** Shutting down DIIS ***
                      *** Re-Reading the Fockian *** 
                      *** Removing any level shift *** 
ITER      Energy       Delta-E        Grad      Rot      Max-DP    RMS-DP
  6   -488.39404747  -0.0000903774  0.000506  0.000506  0.001079  0.000043
               *** Restarting incremental Fock matrix formation ***
  7   -488.39406920  -0.0000217321  0.000236  0.000877  0.001091  0.000031
  8   -488.39406860   0.0000006077  0.000550  0.000733  0.000787  0.000015
  9   -488.39407090  -0.0000023034  0.000080  0.000199  0.000212  0.000009
 10   -488.39407090  -0.0000000024  0.000051  0.000091  0.000106  0.000003
 11   -488.39407100  -0.0000001019  0.000009  0.000023  0.000038  0.000001
 12   -488.39407101  -0.0000000013  0.000016  0.000022  0.000029  0.000001
 13   -488.39407101  -0.0000000056  0.000003  0.000008  0.000010  0.000000
 14   -488.39407101   0.0000000049  0.000003  0.000003  0.000006  0.000000
                 **** Energy Check signals convergence ****
              ***Rediagonalizing the Fockian in SOSCF/NRSCF***

               *****************************************************
               *                     SUCCESS                       *
               *           SCF CONVERGED AFTER  15 CYCLES          *
               *****************************************************

Setting up the final grid:

General Integration Accuracy     IntAcc      ...  4.670
Radial Grid Type                 RadialGrid  ... Gauss-Chebyshev
Angular Grid (max. acc.)         AngularGrid ... Lebedev-302
Angular grid pruning method      GridPruning ... 3 (G Style)
Weight generation scheme         WeightScheme... Becke
Basis function cutoff            BFCut       ...    1.0000e-11
Integration weight cutoff        WCut        ...    1.0000e-14
Grids for H and He will be reduced by one unit

# of grid points (after initial pruning)     ...  83060 (   0.0 sec)
# of grid points (after weights+screening)   ...  76578 (   0.1 sec)
nearest neighbour list constructed           ...    0.0 sec
Grid point re-assignment to atoms done       ...    0.0 sec
Grid point division into batches done        ...    0.4 sec
Reduced shell lists constructed in    0.5 sec

Total number of grid points                  ...    76578
Total number of batches                      ...     1206
Average number of points per batch           ...       63
Average number of grid points per atom       ...     4505
Average number of shells per batch           ...    51.74 (66.34%)
Average number of basis functions per batch  ...   105.96 (63.83%)
Average number of large shells per batch     ...    37.69 (72.84%)
Average number of large basis fcns per batch ...    76.45 (72.15%)
Maximum spatial batch extension              ...  11.82, 10.03, 17.99 au
Average spatial batch extension              ...   0.25,  0.25,  0.31 au

Final grid set up in    0.6 sec
Final integration                            ... done (   0.3 sec)
Change in XC energy                          ...     0.000056415
Integrated number of electrons               ...    70.000136280
Previous integrated no of electrons          ...    70.004721301
Old exchange energy                            =    -12.273960892 Eh
New exchange energy                            =    -12.273555823 Eh
Exchange energy change after final integration =      0.000405069 Eh
Total energy after final integration           =   -488.393609524 Eh
Final COS-X integration done in                =     2.118 sec

----------------
TOTAL SCF ENERGY
----------------

Total Energy       :         -488.39360952 Eh          -13289.86576 eV

Components:
Nuclear Repulsion  :          446.86954350 Eh           12159.93848 eV
Electronic Energy  :         -935.26315302 Eh          -25449.80424 eV
One Electron Energy:        -1552.17468769 Eh          -42236.82053 eV
Two Electron Energy:          616.91153466 Eh           16787.01629 eV

Virial components:
Potential Energy   :         -974.22174384 Eh          -26509.92139 eV
Kinetic Energy     :          485.82813432 Eh           13220.05563 eV
Virial Ratio       :            2.00528062


DFT components:
N(Alpha)           :       35.000068139988 electrons
N(Beta)            :       35.000068139988 electrons
N(Total)           :       70.000136279975 electrons
E(X)               :      -48.839605083086 Eh       
E(C)               :       -2.853439765661 Eh       
E(XC)              :      -51.693044848747 Eh       

---------------
SCF CONVERGENCE
---------------

  Last Energy change         ...   -1.4612e-09  Tolerance :   1.0000e-08
  Last MAX-Density change    ...    3.9501e-13  Tolerance :   1.0000e-07
  Last RMS-Density change    ...    2.5167e-15  Tolerance :   5.0000e-09
  Last Orbital Gradient      ...    7.3136e-07  Tolerance :   1.0000e-05
  Last Orbital Rotation      ...    1.6794e-06  Tolerance :   1.0000e-05

             **** THE GBW FILE WAS UPDATED (AT-v/e/frag_09_c00001.gbw) ****
             **** DENSITY FILE WAS UPDATED (AT-v/e/frag_09_c00001.scfp.tmp) ****
             **** ENERGY FILE WAS UPDATED (AT-v/e/frag_09_c00001.en.tmp) ****
----------------
ORBITAL ENERGIES
----------------

  NO   OCC          E(Eh)            E(eV) 
   0   2.0000     -19.134121      -520.6659 
   1   2.0000     -19.096930      -519.6539 
   2   2.0000     -14.349657      -390.4740 
   3   2.0000     -14.344445      -390.3322 
   4   2.0000     -14.328504      -389.8984 
   5   2.0000     -14.296216      -389.0198 
   6   2.0000     -10.308777      -280.5161 
   7   2.0000     -10.304946      -280.4118 
   8   2.0000     -10.256333      -279.0890 
   9   2.0000      -1.058636       -28.8069 
  10   2.0000      -1.039938       -28.2981 
  11   2.0000      -0.941408       -25.6170 
  12   2.0000      -0.931108       -25.3367 
  13   2.0000      -0.895499       -24.3678 
  14   2.0000      -0.847003       -23.0481 
  15   2.0000      -0.663669       -18.0593 
  16   2.0000      -0.620099       -16.8737 
  17   2.0000      -0.597092       -16.2477 
  18   2.0000      -0.557875       -15.1806 
  19   2.0000      -0.543512       -14.7897 
  20   2.0000      -0.510027       -13.8785 
  21   2.0000      -0.484149       -13.1744 
  22   2.0000      -0.451482       -12.2855 
  23   2.0000      -0.445658       -12.1270 
  24   2.0000      -0.438174       -11.9233 
  25   2.0000      -0.427662       -11.6373 
  26   2.0000      -0.409402       -11.1404 
  27   2.0000      -0.388863       -10.5815 
  28   2.0000      -0.368751       -10.0342 
  29   2.0000      -0.298776        -8.1301 
  30   2.0000      -0.281772        -7.6674 
  31   2.0000      -0.270208        -7.3527 
  32   2.0000      -0.262473        -7.1423 
  33   2.0000      -0.249832        -6.7983 
  34   2.0000      -0.238853        -6.4995 
  35   0.0000      -0.020937        -0.5697 
  36   0.0000       0.029599         0.8054 
  37   0.0000       0.049248         1.3401 
  38   0.0000       0.057467         1.5638 
  39   0.0000       0.082879         2.2553 
  40   0.0000       0.096552         2.6273 
  41   0.0000       0.101747         2.7687 
  42   0.0000       0.130447         3.5496 
  43   0.0000       0.139705         3.8016 
  44   0.0000       0.189924         5.1681 
  45   0.0000       0.232867         6.3366 
  46   0.0000       0.247378         6.7315 
  47   0.0000       0.292982         7.9724 
  48   0.0000       0.303699         8.2641 
  49   0.0000       0.312813         8.5121 
  50   0.0000       0.339746         9.2450 
  51   0.0000       0.346649         9.4328 
  52   0.0000       0.407471        11.0879 
  53   0.0000       0.440436        11.9849 
  54   0.0000       0.459894        12.5144 
  55   0.0000       0.466294        12.6885 
  56   0.0000       0.482719        13.1355 
  57   0.0000       0.485977        13.2241 
  58   0.0000       0.504905        13.7392 
  59   0.0000       0.527397        14.3512 
  60   0.0000       0.544911        14.8278 
  61   0.0000       0.546725        14.8771 
  62   0.0000       0.571986        15.5645 
  63   0.0000       0.583201        15.8697 
  64   0.0000       0.596967        16.2443 
  65   0.0000       0.633269        17.2321 
  66   0.0000       0.648902        17.6575 
  67   0.0000       0.673786        18.3347 
  68   0.0000       0.683061        18.5870 
  69   0.0000       0.698944        19.0192 
  70   0.0000       0.731481        19.9046 
  71   0.0000       0.750634        20.4258 
  72   0.0000       0.759201        20.6589 
  73   0.0000       0.770801        20.9745 
  74   0.0000       0.797442        21.6995 
  75   0.0000       0.806256        21.9393 
  76   0.0000       0.833071        22.6690 
  77   0.0000       0.863382        23.4938 
  78   0.0000       0.878783        23.9129 
  79   0.0000       0.883918        24.0526 
  80   0.0000       0.905367        24.6363 
  81   0.0000       0.925556        25.1857 
  82   0.0000       0.952260        25.9123 
  83   0.0000       0.980739        26.6873 
  84   0.0000       1.007474        27.4148 
  85   0.0000       1.021061        27.7845 
  86   0.0000       1.041912        28.3519 
  87   0.0000       1.080649        29.4060 
  88   0.0000       1.081876        29.4393 
  89   0.0000       1.111358        30.2416 
  90   0.0000       1.117403        30.4061 
  91   0.0000       1.133416        30.8418 
  92   0.0000       1.146970        31.2106 
  93   0.0000       1.173667        31.9371 
  94   0.0000       1.238854        33.7109 
  95   0.0000       1.256367        34.1875 
  96   0.0000       1.276737        34.7418 
  97   0.0000       1.301051        35.4034 
  98   0.0000       1.311151        35.6782 
  99   0.0000       1.326085        36.0846 
 100   0.0000       1.342800        36.5395 
 101   0.0000       1.352683        36.8084 
 102   0.0000       1.409641        38.3583 
 103   0.0000       1.483499        40.3681 
 104   0.0000       1.486339        40.4453 
 105   0.0000       1.510974        41.1157 
 106   0.0000       1.534636        41.7596 
 107   0.0000       1.554096        42.2891 
 108   0.0000       1.556563        42.3562 
 109   0.0000       1.581870        43.0449 
 110   0.0000       1.630274        44.3620 
 111   0.0000       1.632920        44.4340 
 112   0.0000       1.646120        44.7932 
 113   0.0000       1.687734        45.9256 
 114   0.0000       1.703452        46.3533 
 115   0.0000       1.717111        46.7250 
 116   0.0000       1.726882        46.9909 
 117   0.0000       1.735925        47.2369 
 118   0.0000       1.743415        47.4407 
 119   0.0000       1.794977        48.8438 
 120   0.0000       1.804816        49.1115 
 121   0.0000       1.851151        50.3724 
 122   0.0000       1.897173        51.6247 
 123   0.0000       1.911504        52.0147 
 124   0.0000       1.936406        52.6923 
 125   0.0000       1.989181        54.1284 
 126   0.0000       2.020778        54.9882 
 127   0.0000       2.053311        55.8734 
 128   0.0000       2.066070        56.2206 
 129   0.0000       2.083234        56.6877 
 130   0.0000       2.159307        58.7577 
 131   0.0000       2.184595        59.4458 
 132   0.0000       2.228940        60.6526 
 133   0.0000       2.254133        61.3381 
 134   0.0000       2.259368        61.4805 
 135   0.0000       2.272238        61.8307 
 136   0.0000       2.301509        62.6272 
 137   0.0000       2.347885        63.8892 
 138   0.0000       2.391559        65.0776 
 139   0.0000       2.399726        65.2999 
 140   0.0000       2.448470        66.6263 
 141   0.0000       2.473422        67.3052 
 142   0.0000       2.518701        68.5373 
 143   0.0000       2.537616        69.0521 
 144   0.0000       2.569554        69.9211 
 145   0.0000       2.603000        70.8312 
 146   0.0000       2.627925        71.5095 
 147   0.0000       2.663813        72.4860 
 148   0.0000       2.681059        72.9553 
 149   0.0000       2.708838        73.7112 
 150   0.0000       2.713693        73.8433 
 151   0.0000       2.731104        74.3171 
 152   0.0000       2.791555        75.9621 
 153   0.0000       2.854051        77.6627 
 154   0.0000       2.882357        78.4329 
 155   0.0000       2.906912        79.1011 
 156   0.0000       2.984012        81.1991 
 157   0.0000       3.048235        82.9467 
 158   0.0000       3.091740        84.1305 
 159   0.0000       3.132815        85.2482 
 160   0.0000       3.302571        89.8675 
 161   0.0000       3.375571        91.8540 
 162   0.0000       3.410954        92.8168 
 163   0.0000       3.472195        94.4832 
 164   0.0000       3.505257        95.3829 
 165   0.0000       3.532221        96.1166 
-------
TIMINGS
-------

Total SCF time: 0 days 0 hours 0 min 22 sec 

Total time                  ....      22.769 sec
Sum of individual times     ....      22.686 sec  ( 99.6%)

Fock matrix formation       ....      21.143 sec  ( 92.9%)
  Split-RI-J                ....       3.824 sec  ( 18.1% of F)
  Chain of spheres X        ....      15.713 sec  ( 74.3% of F)
  COS-X 1 center corr.      ....       0.000 sec  (  0.0% of F)
  XC integration            ....       1.526 sec  (  7.2% of F)
    Basis function eval.    ....       0.578 sec  ( 37.9% of XC)
    Density eval.           ....       0.253 sec  ( 16.6% of XC)
    XC-Functional eval.     ....       0.069 sec  (  4.5% of XC)
    XC-Potential eval.      ....       0.476 sec  ( 31.2% of XC)
Diagonalization             ....       0.054 sec  (  0.2%)
Density matrix formation    ....       0.023 sec  (  0.1%)
Population analysis         ....       0.000 sec  (  0.0%)
Initial guess               ....       0.268 sec  (  1.2%)
Orbital Transformation      ....       0.000 sec  (  0.0%)
Orbital Orthonormalization  ....       0.000 sec  (  0.0%)
DIIS solution               ....       0.018 sec  (  0.1%)
SOSCF solution              ....       0.124 sec  (  0.5%)
Grid generation             ....       1.056 sec  (  4.6%)


-------------------------------------------------------------------------------
                          DFT DISPERSION CORRECTION                            
                                                                               
                              DFTD3 V3.1  Rev 1                                
                          USING Becke-Johnson damping                          
-------------------------------------------------------------------------------
The B3LYP functional is recognized
Active option DFTDOPT                   ...         4   

molecular C6(AA) [au] = 2749.492804 


            DFT-D V3
 parameters
 s6 scaling factor         :     1.0000 
 a1 scaling factor         :     0.3981 
 s8 scaling factor         :     1.9889 
 a2 scaling factor         :     4.4211 
 ad hoc parameters k1-k3   :    16.0000     1.3333    -4.0000 

 Edisp/kcal,au: -14.643050986818  -0.023335184615 
 E6   /kcal   :  -7.249813663 
 E8   /kcal   :  -7.393237323 
 % E8         :  50.489732844 

-------------------------   ----------------
Dispersion correction           -0.023335185
-------------------------   ----------------


-------------------------   --------------------
FINAL SINGLE POINT ENERGY      -488.416944708220
-------------------------   --------------------



           ************************************************************
           *        Program running with 6 parallel MPI-processes     *
           *              working on a common directory               *
           ************************************************************
------------------------------------------------------------------------------
                         ORCA SCF GRADIENT CALCULATION
------------------------------------------------------------------------------

Gradient of the Kohn-Sham DFT energy:
Kohn-Sham wavefunction type      ... RKS
Hartree-Fock exchange scaling    ...    0.200
Number of operators              ...    1
Number of atoms                  ...   17
Basis set dimensions             ...  166
Integral neglect threshold       ... 2.5e-11
Integral primitive cutoff        ... 2.5e-12

Nuclear repulsion gradient       ... done
One Electron Gradient            ... done
Pre-screening matrix             ... done
RI-J gradient                    ... done
COSX-gradient                    ... done
Exchange-correlation gradient    ... done
Dispersion correction            ... done

------------------
CARTESIAN GRADIENT
------------------

   1   C   :   -0.008374918   -0.001229974   -0.005928493
   2   N   :    0.006553318    0.011088726    0.001505094
   3   N   :   -0.012871549   -0.010671397    0.000324389
   4   N   :    0.030069049    0.004024656    0.002417204
   5   C   :   -0.004133640   -0.034274888   -0.005430799
   6   O   :   -0.009824397    0.009535366    0.006676722
   7   N   :    0.004360550    0.028415867   -0.001836526
   8   C   :   -0.005738702   -0.008760539    0.002986460
   9   O   :    0.007789664   -0.003486766   -0.000567221
  10   H   :   -0.001152908   -0.000126018   -0.000316822
  11   H   :   -0.006379890   -0.000057693    0.002185785
  12   H   :    0.003023512   -0.000094959    0.001507979
  13   H   :    0.007220296    0.001982331    0.003245825
  14   H   :    0.004640902    0.006034950   -0.001657702
  15   H   :   -0.000588470   -0.001372891   -0.001583937
  16   H   :   -0.024589746   -0.001435799   -0.002111820
  17   H   :    0.008019385    0.002226194    0.000084025

Difference to translation invariance:
           :   -0.0019775438    0.0017971668    0.0015001647

Norm of the cartesian gradient     ...    0.0694740447
RMS gradient                       ...    0.0097283121
MAX gradient                       ...    0.0342748884

-------
TIMINGS
-------

Total SCF gradient time            ...        4.744 sec

One electron gradient       ....       0.066 sec  (  1.4%)
Prescreening matrices       ....       0.121 sec  (  2.6%)
RI-J Coulomb gradient       ....       0.751 sec  ( 15.8%)
COSX gradient               ....       2.071 sec  ( 43.7%)
XC gradient                 ....       1.178 sec  ( 24.8%)
------------------------------------------------------------------------------
                         ORCA GEOMETRY RELAXATION STEP
------------------------------------------------------------------------------

Reading the OPT-File                    .... done
Getting information on internals        .... done
Copying old internal coords+grads       .... done
Making the new internal coordinates     .... (new redundants).... done
Validating the new internal coordinates .... (new redundants).... done
Calculating the B-matrix                .... done
Calculating the G,G- and P matrices     .... done
Transforming gradient to internals      .... done
Projecting the internal gradient        .... done
Number of atoms                         ....  17
Number of internal coordinates          ....  70
Current Energy                          ....  -488.416944708 Eh
Current gradient norm                   ....     0.069474045 Eh/bohr
Maximum allowed component of the step   ....  0.300
Current trust radius                    ....  0.300
Evaluating the initial hessian          ....  (Almloef) done
Projecting the Hessian                  .... done
Forming the augmented Hessian           .... done
Diagonalizing the augmented Hessian     .... done
Last element of RFO vector              ....  0.956316641
Lowest eigenvalues of augmented Hessian:
 -0.011361975  0.015267409  0.028506437  0.030781146  0.031845459
Length of the computed step             ....  0.305686230
Warning: the length of the step is outside the trust region - taking restricted step instead
The input lambda is                     ....    -0.011362
   iter:   1  x=   -0.012288  g=    3.719391 f(x)=     0.003444
   iter:   2  x=   -0.012320  g=    3.484381 f(x)=     0.000110
   iter:   3  x=   -0.012320  g=    3.476703 f(x)=     0.000000
   iter:   4  x=   -0.012320  g=    3.476695 f(x)=     0.000000
   iter:   5  x=   -0.012320  g=    3.476695 f(x)=     0.000000
The output lambda is                    ....    -0.012320 (5 iterations)
The final length of the internal step   ....  0.300000000
Converting the step to cartesian space:
 Initial RMS(Int)=    0.0358568583
Transforming coordinates:
 Iter   0:  RMS(Cart)=    0.0714818377 RMS(Int)=    0.7511808467
 Iter   1:  RMS(Cart)=    0.0011651389 RMS(Int)=    0.0010212767
 Iter   2:  RMS(Cart)=    0.0000514119 RMS(Int)=    0.0000453718
 Iter   3:  RMS(Cart)=    0.0000033016 RMS(Int)=    0.0000025773
 Iter   4:  RMS(Cart)=    0.0000001815 RMS(Int)=    0.0000001842
 Iter   5:  RMS(Cart)=    0.0000000139 RMS(Int)=    0.0000000117
done
Storing new coordinates                 .... done

                                .--------------------.
          ----------------------|Geometry convergence|-------------------------
          Item                value                   Tolerance       Converged
          ---------------------------------------------------------------------
          RMS gradient        0.0077898579            0.0020000000      NO
          MAX gradient        0.0344388432            0.0030000000      NO
          RMS step            0.0358568583            0.0200000000      NO
          MAX step            0.1437432725            0.0300000000      NO
          ........................................................
          Max(Bonds)      0.0761      Max(Angles)    2.01
          Max(Dihed)        5.24      Max(Improp)    0.00
          ---------------------------------------------------------------------

The optimization has not yet converged - more geometry cycles are needed


    ---------------------------------------------------------------------------
                         Redundant Internal Coordinates
                            (Angstroem and degrees)

        Definition                    Value    dE/dq     Step     New-Value
    ----------------------------------------------------------------------------
     1. B(N   1,C   0)                1.3483 -0.013678  0.0108    1.3591   
     2. B(N   2,C   0)                1.2853 -0.006888  0.0047    1.2900   
     3. B(C   4,N   3)                1.3566 -0.034439  0.0283    1.3849   
     4. B(O   5,C   4)                1.2259  0.002861 -0.0015    1.2244   
     5. B(N   6,C   4)                1.3643 -0.024048  0.0203    1.3846   
     6. B(C   7,N   6)                1.3710  0.007661 -0.0064    1.3646   
     7. B(O   8,C   7)                1.2274  0.003848 -0.0022    1.2251   
     8. B(H   9,C   0)                1.1036 -0.001090  0.0016    1.1052   
     9. B(H  10,N   1)                1.0118 -0.002095  0.0025    1.0143   
    10. B(H  11,N   1)                1.0255 -0.008871  0.0101    1.0357   
    11. B(H  11,O   8)                1.8020 -0.006003  0.0761    1.8781   
    12. B(H  12,N   2)                1.0304  0.006307 -0.0081    1.0223   
    13. B(H  13,N   3)                1.0097 -0.006708  0.0080    1.0176   
    14. B(H  14,N   3)                1.0145 -0.001191  0.0014    1.0159   
    15. B(H  15,N   6)                1.0259 -0.029776  0.0385    1.0644   
    16. B(H  15,N   2)                1.6945 -0.005217  0.0669    1.7614   
    17. B(H  16,C   7)                1.0999 -0.008172  0.0120    1.1120   
    18. A(N   1,C   0,N   2)          123.12  0.002254   -0.19    122.93   
    19. A(N   2,C   0,H   9)          122.64 -0.000773    0.03    122.68   
    20. A(N   1,C   0,H   9)          114.23 -0.001464    0.14    114.37   
    21. A(H  10,N   1,H  11)          112.40 -0.003384    1.17    113.57   
    22. A(C   0,N   1,H  11)          114.67 -0.002832    0.61    115.28   
    23. A(C   0,N   1,H  10)          117.84  0.004481   -0.59    117.25   
    24. A(C   0,N   2,H  12)          108.83 -0.007651    1.15    109.98   
    25. A(C   0,N   2,H  15)          126.34  0.006235   -0.79    125.55   
    26. A(H  12,N   2,H  15)          124.83  0.001415   -0.35    124.47   
    27. A(C   4,N   3,H  14)          111.28  0.001812   -0.13    111.14   
    28. A(C   4,N   3,H  13)          117.00 -0.003620    0.69    117.69   
    29. A(H  13,N   3,H  14)          112.13 -0.000011    0.25    112.38   
    30. A(N   3,C   4,N   6)          117.26  0.003888   -0.49    116.77   
    31. A(N   3,C   4,O   5)          119.70 -0.016854    2.01    121.72   
    32. A(O   5,C   4,N   6)          123.04  0.012969   -1.53    121.51   
    33. A(C   4,N   6,C   7)          130.19  0.012585   -1.82    128.37   
    34. A(C   7,N   6,H  15)          115.22 -0.005214    0.87    116.09   
    35. A(C   4,N   6,H  15)          114.59 -0.007368    0.95    115.54   
    36. A(N   6,C   7,O   8)          124.16  0.000785   -0.14    124.02   
    37. A(O   8,C   7,H  16)          121.57  0.001655   -0.25    121.33   
    38. A(N   6,C   7,H  16)          114.26 -0.002441    0.38    114.65   
    39. A(C   7,O   8,H  11)          124.90 -0.001422   -0.09    124.81   
    40. A(N   1,H  11,O   8)          173.07 -0.001431    0.08    173.15   
    41. A(N   2,H  15,N   6)          174.31  0.001713   -0.22    174.09   
    42. D(H  10,N   1,C   0,H   9)     31.67  0.002453   -1.15     30.52   
    43. D(H  11,N   1,C   0,H   9)    167.45 -0.001229    0.83    168.29   
    44. D(H  10,N   1,C   0,N   2)   -148.98  0.004122   -2.88   -151.86   
    45. D(H  11,N   1,C   0,N   2)    -13.20  0.000440   -0.90    -14.10   
    46. D(H  12,N   2,C   0,H   9)      0.52 -0.000160    0.43      0.95   
    47. D(H  15,N   2,C   0,N   1)      1.29 -0.001447    2.02      3.32   
    48. D(H  12,N   2,C   0,N   1)   -178.77 -0.001966    2.31   -176.46   
    49. D(H  15,N   2,C   0,H   9)   -179.41  0.000359    0.14   -179.27   
    50. D(N   6,C   4,N   3,H  14)    176.50 -0.000108   -0.42    176.08   
    51. D(N   6,C   4,N   3,H  13)     45.80  0.001530   -1.32     44.49   
    52. D(O   5,C   4,N   3,H  14)     -3.55  0.002900   -4.34     -7.89   
    53. D(O   5,C   4,N   3,H  13)   -134.25  0.004538   -5.24   -139.49   
    54. D(H  15,N   6,C   4,N   3)    179.70 -0.000039    0.31    180.01   
    55. D(C   7,N   6,C   4,O   5)   -179.86 -0.003628    4.59   -175.27   
    56. D(C   7,N   6,C   4,N   3)      0.09 -0.000528    0.53      0.61   
    57. D(H  15,N   6,C   4,O   5)     -0.24 -0.003138    4.37      4.13   
    58. D(H  16,C   7,N   6,H  15)   -178.70 -0.000693    0.68   -178.02   
    59. D(H  16,C   7,N   6,C   4)      0.91 -0.000207    0.46      1.38   
    60. D(O   8,C   7,N   6,H  15)      0.42 -0.000719    0.84      1.26   
    61. D(O   8,C   7,N   6,C   4)   -179.96 -0.000233    0.63   -179.33   
    62. D(H  11,O   8,C   7,H  16)    168.45 -0.000500    0.25    168.70   
    63. D(H  11,O   8,C   7,N   6)    -10.61 -0.000437    0.07    -10.54   
    64. D(N   1,H  11,O   8,C   7)     19.16 -0.000045    0.40     19.56   
    65. D(O   8,H  11,N   1,H  10)    141.78  0.000016    0.59    142.37   
    66. D(O   8,H  11,N   1,C   0)      3.61  0.000037   -0.52      3.09   
    67. D(N   2,H  15,N   6,C   7)    -32.23  0.001384   -0.22    -32.45   
    68. D(N   2,H  15,N   6,C   4)    148.09  0.000897   -0.03    148.06   
    69. D(N   6,H  15,N   2,H  12)   -136.47  0.001614   -2.15   -138.62   
    70. D(N   6,H  15,N   2,C   0)     43.46  0.001011   -1.82     41.64   
    ----------------------------------------------------------------------------

         *************************************************************
         *                GEOMETRY OPTIMIZATION CYCLE   2            *
         *************************************************************
---------------------------------
CARTESIAN COORDINATES (ANGSTROEM)
---------------------------------
  C      1.643862   -0.724075    0.049314
  N      1.093086   -1.944369   -0.184422
  N      0.945309    0.357927    0.123894
  N     -3.894618    1.633844   -0.040344
  C     -2.509823    1.647607   -0.044297
  O     -1.877583    2.687062   -0.182097
  N     -1.874664    0.419389    0.028256
  C     -2.436596   -0.822463    0.092186
  O     -1.793556   -1.862599    0.166250
  H      2.746152   -0.729157    0.129222
  H      1.579861   -2.752529    0.188021
  H      0.064471   -1.993698   -0.074260
  H      1.561982    1.164074    0.246464
  H     -4.359529    1.025861    0.630326
  H     -4.270409    2.577689   -0.032168
  H     -0.810793    0.452015    0.024745
  H     -3.548052   -0.830877    0.059611

----------------------------
CARTESIAN COORDINATES (A.U.)
----------------------------
  NO LB      ZA    FRAG     MASS         X           Y           Z
   0 C     6.0000    0    12.011    3.106449   -1.368304    0.093189
   1 N     7.0000    0    14.007    2.065633   -3.674324   -0.348507
   2 N     7.0000    0    14.007    1.786375    0.676383    0.234125
   3 N     7.0000    0    14.007   -7.359760    3.087517   -0.076239
   4 C     6.0000    0    12.011   -4.742877    3.113525   -0.083710
   5 O     8.0000    0    15.999   -3.548117    5.077812   -0.344113
   6 N     7.0000    0    14.007   -3.542602    0.792530    0.053396
   7 C     6.0000    0    12.011   -4.604500   -1.554230    0.174207
   8 O     8.0000    0    15.999   -3.389330   -3.519802    0.314168
   9 H     1.0000    0     1.008    5.189475   -1.377908    0.244195
  10 H     1.0000    0     1.008    2.985505   -5.201526    0.355308
  11 H     1.0000    0     1.008    0.121832   -3.767544   -0.140331
  12 H     1.0000    0     1.008    2.951718    2.199780    0.465749
  13 H     1.0000    0     1.008   -8.238315    1.938596    1.191144
  14 H     1.0000    0     1.008   -8.069903    4.871126   -0.060789
  15 H     1.0000    0     1.008   -1.532178    0.854185    0.046761
  16 H     1.0000    0     1.008   -6.704847   -1.570129    0.112648

--------------------------------
INTERNAL COORDINATES (ANGSTROEM)
--------------------------------
 C      0   0   0     0.000000000000     0.00000000     0.00000000
 N      1   0   0     1.359081431331     0.00000000     0.00000000
 N      1   2   0     1.290064619114   122.92708554     0.00000000
 N      3   1   2     5.007976191449   137.31626817     3.26911124
 C      4   3   1     1.384868998461    15.47084539   194.37087985
 O      5   4   3     1.224411643162   121.67446810   180.16061033
 N      5   4   3     1.384633348668   116.72637653     4.21219587
 C      7   5   4     1.364569966628   128.37571434     0.64928529
 O      8   7   5     1.225099442441   124.01084116   180.66464142
 H      1   2   3     1.105194025771   114.36178297   182.38570494
 H      2   1   3     1.014291290215   117.24320411   208.13430967
 H      2   1   3     1.035672977527   115.27528661   345.88279727
 H      3   1   2     1.022341466255   109.97823823   183.52936412
 H      4   3   1     1.017636407195   105.52710988    50.85138771
 H      4   3   1     1.015937856606   126.43548520   184.98229829
 H      7   5   4     1.064376580069   115.53980402   180.05090551
 H      8   7   5     1.111964727626   114.65330224     1.37776143

---------------------------
INTERNAL COORDINATES (A.U.)
---------------------------
 C      0   0   0     0.000000000000     0.00000000     0.00000000
 N      1   0   0     2.568291698914     0.00000000     0.00000000
 N      1   2   0     2.437868825186   122.92708554     0.00000000
 N      3   1   2     9.463703487037   137.31626817     3.26911124
 C      4   3   1     2.617023138449    15.47084539   194.37087985
 O      5   4   3     2.313802680761   121.67446810   180.16061033
 N      5   4   3     2.616577824878   116.72637653     4.21219587
 C      7   5   4     2.578663527502   128.37571434     0.64928529
 O      8   7   5     2.315102433033   124.01084116   180.66464142
 H      1   2   3     2.088514033553   114.36178297   182.38570494
 H      2   1   3     1.916732758529   117.24320411   208.13430967
 H      2   1   3     1.957138291829   115.27528661   345.88279727
 H      3   1   2     1.931945386574   109.97823823   183.52936412
 H      4   3   1     1.923054113505   105.52710988    50.85138771
 H      4   3   1     1.919844318067   126.43548520   184.98229829
 H      7   5   4     2.011380239691   115.53980402   180.05090551
 H      8   7   5     2.101308805793   114.65330224     1.37776143



           ************************************************************
           *        Program running with 6 parallel MPI-processes     *
           *              working on a common directory               *
           ************************************************************
 One Electron integrals                  ... done
 Pre-screening matrix                    ... done


           ************************************************************
           *        Program running with 6 parallel MPI-processes     *
           *              working on a common directory               *
           ************************************************************

Diagonalization of the overlap matrix:
Smallest eigenvalue                        ... 5.201e-03
Time for diagonalization                   ...    0.007 sec
Threshold for overlap eigenvalues          ... 1.000e-08
Number of eigenvalues below threshold      ... 0
Time for construction of square roots      ...    0.003 sec
Total time needed                          ...    0.011 sec

-------------------
DFT GRID GENERATION
-------------------

General Integration Accuracy     IntAcc      ...  4.340
Radial Grid Type                 RadialGrid  ... Gauss-Chebyshev
Angular Grid (max. acc.)         AngularGrid ... Lebedev-110
Angular grid pruning method      GridPruning ... 3 (G Style)
Weight generation scheme         WeightScheme... Becke
Basis function cutoff            BFCut       ...    1.0000e-11
Integration weight cutoff        WCut        ...    1.0000e-14
Grids for H and He will be reduced by one unit

# of grid points (after initial pruning)     ...  21560 (   0.0 sec)
# of grid points (after weights+screening)   ...  20171 (   0.0 sec)
nearest neighbour list constructed           ...    0.0 sec
Grid point re-assignment to atoms done       ...    0.0 sec
Grid point division into batches done        ...    0.0 sec
Reduced shell lists constructed in    0.1 sec

Total number of grid points                  ...    20171
Total number of batches                      ...      322
Average number of points per batch           ...       62
Average number of grid points per atom       ...     1187
Average number of shells per batch           ...    54.64 (70.05%)
Average number of basis functions per batch  ...   112.71 (67.90%)
Average number of large shells per batch     ...    39.75 (72.75%)
Average number of large basis fcns per batch ...    80.98 (71.85%)
Maximum spatial batch extension              ...  14.20,  9.82, 16.87 au
Average spatial batch extension              ...   0.37,  0.35,  0.50 au

Time for grid setup =    0.106 sec

--------------------
COSX GRID GENERATION
--------------------

General Integration Accuracy     IntAcc      ...  3.340
Radial Grid Type                 RadialGrid  ... Gauss-Chebyshev
Angular Grid (max. acc.)         AngularGrid ... Lebedev-50
Angular grid pruning method      GridPruning ... 3 (G Style)
Weight generation scheme         WeightScheme... Becke
Basis function cutoff            BFCut       ...    1.0000e-11
Integration weight cutoff        WCut        ...    1.0000e-14
Grids for H and He will be reduced by one unit

# of grid points (after initial pruning)     ...   7724 (   0.0 sec)
# of grid points (after weights+screening)   ...   7276 (   0.0 sec)
nearest neighbour list constructed           ...    0.0 sec
Grid point re-assignment to atoms done       ...    0.0 sec
Grid point division into batches done        ...    0.0 sec
Reduced shell lists constructed in    0.0 sec

Total number of grid points                  ...     7276
Total number of batches                      ...      121
Average number of points per batch           ...       60
Average number of grid points per atom       ...      428
Average number of shells per batch           ...    55.86 (71.62%)
Average number of basis functions per batch  ...   115.86 (69.80%)
Average number of large shells per batch     ...    40.95 (73.31%)
Average number of large basis fcns per batch ...    83.50 (72.07%)
Maximum spatial batch extension              ...   7.74,  5.57, 19.86 au
Average spatial batch extension              ...   0.43,  0.41,  0.93 au

Overlap Fitting                  UseSFitting ... on
Constructing numerical overlap ... done (      0.0 sec)
Inverting numerical overlap    ... done (      0.0 sec)
Obtaining analytic overlap     ... done (      0.0 sec)
Final contraction and storage  ... done (      0.0 sec)


General Integration Accuracy     IntAcc      ...  3.670
Radial Grid Type                 RadialGrid  ... Gauss-Chebyshev
Angular Grid (max. acc.)         AngularGrid ... Lebedev-50
Angular grid pruning method      GridPruning ... 3 (G Style)
Weight generation scheme         WeightScheme... Becke
Basis function cutoff            BFCut       ...    1.0000e-11
Integration weight cutoff        WCut        ...    1.0000e-14
Grids for H and He will be reduced by one unit

# of grid points (after initial pruning)     ...   9890 (   0.0 sec)
# of grid points (after weights+screening)   ...   9289 (   0.0 sec)
nearest neighbour list constructed           ...    0.0 sec
Grid point re-assignment to atoms done       ...    0.0 sec
Grid point division into batches done        ...    0.0 sec
Reduced shell lists constructed in    0.0 sec

Total number of grid points                  ...     9289
Total number of batches                      ...      154
Average number of points per batch           ...       60
Average number of grid points per atom       ...      546
Average number of shells per batch           ...    55.93 (71.70%)
Average number of basis functions per batch  ...   115.93 (69.83%)
Average number of large shells per batch     ...    40.70 (72.78%)
Average number of large basis fcns per batch ...    83.37 (71.92%)
Maximum spatial batch extension              ...   5.58,  6.13, 17.39 au
Average spatial batch extension              ...   0.36,  0.40,  0.74 au

Overlap Fitting                  UseSFitting ... on
Constructing numerical overlap ... done (      0.0 sec)
Inverting numerical overlap    ... done (      0.0 sec)
Obtaining analytic overlap     ... done (      0.0 sec)
Final contraction and storage  ... done (      0.0 sec)


General Integration Accuracy     IntAcc      ...  4.010
Radial Grid Type                 RadialGrid  ... Gauss-Chebyshev
Angular Grid (max. acc.)         AngularGrid ... Lebedev-110
Angular grid pruning method      GridPruning ... 3 (G Style)
Weight generation scheme         WeightScheme... Becke
Basis function cutoff            BFCut       ...    1.0000e-11
Integration weight cutoff        WCut        ...    1.0000e-14
Grids for H and He will be reduced by one unit

# of grid points (after initial pruning)     ...  18464 (   0.0 sec)
# of grid points (after weights+screening)   ...  17298 (   0.0 sec)
nearest neighbour list constructed           ...    0.0 sec
Grid point re-assignment to atoms done       ...    0.0 sec
Grid point division into batches done        ...    0.0 sec
Reduced shell lists constructed in    0.1 sec

Total number of grid points                  ...    17298
Total number of batches                      ...      279
Average number of points per batch           ...       62
Average number of grid points per atom       ...     1018
Average number of shells per batch           ...    54.96 (70.46%)
Average number of basis functions per batch  ...   113.58 (68.42%)
Average number of large shells per batch     ...    40.35 (73.43%)
Average number of large basis fcns per batch ...    82.35 (72.51%)
Maximum spatial batch extension              ...  13.32,  9.53, 16.16 au
Average spatial batch extension              ...   0.39,  0.37,  0.58 au

Overlap Fitting                  UseSFitting ... on
Constructing numerical overlap ... done (      0.0 sec)
Inverting numerical overlap    ... done (      0.0 sec)
Obtaining analytic overlap     ... done (      0.0 sec)
Final contraction and storage  ... done (      0.0 sec)

Time for X-Grid setup             =    0.328 sec
--------------
SCF ITERATIONS
--------------
ITER       Energy         Delta-E        Max-DP      RMS-DP      [F,P]     Damp
               ***  Starting incremental Fock matrix formation  ***
  0   -488.3957256709   0.000000000000 0.00681445  0.00019600  0.0242896 0.7000
                      *** Initiating the SOSCF procedure ***
                      *** Re-Reading the Fockian *** 
                      *** Removing any level shift *** 
ITER      Energy       Delta-E        Grad      Rot      Max-DP    RMS-DP
  1   -488.39705266  -0.0013269898  0.002104  0.002104  0.020922  0.000587
               *** Restarting incremental Fock matrix formation ***
  2   -488.40051648  -0.0034638235  0.001353  0.003430  0.004110  0.000140
  3   -488.40057096  -0.0000544792  0.001748  0.002249  0.004216  0.000088
  4   -488.40060577  -0.0000348112  0.000736  0.001615  0.002451  0.000059
  5   -488.40061642  -0.0000106448  0.000469  0.000873  0.001148  0.000027
  6   -488.40062074  -0.0000043236  0.000269  0.000349  0.000555  0.000013
  7   -488.40062203  -0.0000012823  0.000077  0.000183  0.000263  0.000006
  8   -488.40062210  -0.0000000716  0.000073  0.000137  0.000168  0.000004
  9   -488.40062220  -0.0000001070  0.000027  0.000048  0.000114  0.000002
 10   -488.40062223  -0.0000000279  0.000026  0.000036  0.000072  0.000001
 11   -488.40062225  -0.0000000199  0.000007  0.000017  0.000019  0.000001
 12   -488.40062225   0.0000000039  0.000009  0.000017  0.000019  0.000000
 13   -488.40062226  -0.0000000072  0.000005  0.000009  0.000010  0.000000
                  ***Gradient check signals convergence***
              ***Rediagonalizing the Fockian in SOSCF/NRSCF***

               *****************************************************
               *                     SUCCESS                       *
               *           SCF CONVERGED AFTER  14 CYCLES          *
               *****************************************************

Setting up the final grid:

General Integration Accuracy     IntAcc      ...  4.670
Radial Grid Type                 RadialGrid  ... Gauss-Chebyshev
Angular Grid (max. acc.)         AngularGrid ... Lebedev-302
Angular grid pruning method      GridPruning ... 3 (G Style)
Weight generation scheme         WeightScheme... Becke
Basis function cutoff            BFCut       ...    1.0000e-11
Integration weight cutoff        WCut        ...    1.0000e-14
Grids for H and He will be reduced by one unit

# of grid points (after initial pruning)     ...  83060 (   0.0 sec)
# of grid points (after weights+screening)   ...  76671 (   0.1 sec)
nearest neighbour list constructed           ...    0.0 sec
Grid point re-assignment to atoms done       ...    0.0 sec
[...]
Average number of large shells per batch     ...    40.67 (72.28%)
Average number of large basis fcns per batch ...    83.19 (71.23%)
Maximum spatial batch extension              ...   8.59,  6.11, 18.16 au
Average spatial batch extension              ...   0.39,  0.39,  0.75 au

Overlap Fitting                  UseSFitting ... on
Constructing numerical overlap ... done (      0.0 sec)
Inverting numerical overlap    ... done (      0.0 sec)
Obtaining analytic overlap     ... done (      0.0 sec)
Final contraction and storage  ... done (      0.0 sec)


General Integration Accuracy     IntAcc      ...  4.010
Radial Grid Type                 RadialGrid  ... Gauss-Chebyshev
Angular Grid (max. acc.)         AngularGrid ... Lebedev-110
Angular grid pruning method      GridPruning ... 3 (G Style)
Weight generation scheme         WeightScheme... Becke
Basis function cutoff            BFCut       ...    1.0000e-11
Integration weight cutoff        WCut        ...    1.0000e-14
Grids for H and He will be reduced by one unit

# of grid points (after initial pruning)     ...  18464 (   0.0 sec)
# of grid points (after weights+screening)   ...  17316 (   0.0 sec)
nearest neighbour list constructed           ...    0.0 sec
Grid point re-assignment to atoms done       ...    0.0 sec
Grid point division into batches done        ...    0.0 sec
Reduced shell lists constructed in    0.1 sec

Total number of grid points                  ...    17316
Total number of batches                      ...      279
Average number of points per batch           ...       62
Average number of grid points per atom       ...     1019
Average number of shells per batch           ...    55.15 (70.70%)
Average number of basis functions per batch  ...   114.06 (68.71%)
Average number of large shells per batch     ...    40.58 (73.59%)
Average number of large basis fcns per batch ...    82.83 (72.62%)
Maximum spatial batch extension              ...   9.35,  7.41, 18.06 au
Average spatial batch extension              ...   0.36,  0.34,  0.60 au

Overlap Fitting                  UseSFitting ... on
Constructing numerical overlap ... done (      0.0 sec)
Inverting numerical overlap    ... done (      0.0 sec)
Obtaining analytic overlap     ... done (      0.0 sec)
Final contraction and storage  ... done (      0.0 sec)

Time for X-Grid setup             =    0.322 sec
--------------
SCF ITERATIONS
--------------
ITER       Energy         Delta-E        Max-DP      RMS-DP      [F,P]     Damp
               ***  Starting incremental Fock matrix formation  ***
                      *** Initiating the SOSCF procedure ***
                      *** Re-Reading the Fockian *** 
                      *** Removing any level shift *** 
ITER      Energy       Delta-E        Grad      Rot      Max-DP    RMS-DP
  0   -488.40215706 -488.4021570627  0.001673  0.001673  0.008221  0.000168
               *** Restarting incremental Fock matrix formation ***
  1   -488.40245747  -0.0003004065  0.000514  0.001996  0.002301  0.000068
  2   -488.40248798  -0.0000305131  0.000166  0.000796  0.001047  0.000024
  3   -488.40248651   0.0000014773  0.000446  0.000571  0.000762  0.000014
  4   -488.40248908  -0.0000025775  0.000044  0.000101  0.000220  0.000004
  5   -488.40248904   0.0000000383  0.000059  0.000058  0.000135  0.000003
  6   -488.40248914  -0.0000000973  0.000012  0.000029  0.000042  0.000001
  7   -488.40248914   0.0000000021  0.000018  0.000017  0.000028  0.000001
                  ***Gradient check signals convergence***
              ***Rediagonalizing the Fockian in SOSCF/NRSCF***

               *****************************************************
               *                     SUCCESS                       *
               *           SCF CONVERGED AFTER   8 CYCLES          *
               *****************************************************

Setting up the final grid:

General Integration Accuracy     IntAcc      ...  4.670
Radial Grid Type                 RadialGrid  ... Gauss-Chebyshev
Angular Grid (max. acc.)         AngularGrid ... Lebedev-302
Angular grid pruning method      GridPruning ... 3 (G Style)
Weight generation scheme         WeightScheme... Becke
Basis function cutoff            BFCut       ...    1.0000e-11
Integration weight cutoff        WCut        ...    1.0000e-14
Grids for H and He will be reduced by one unit

# of grid points (after initial pruning)     ...  83060 (   0.0 sec)
# of grid points (after weights+screening)   ...  76604 (   0.1 sec)
nearest neighbour list constructed           ...    0.0 sec
Grid point re-assignment to atoms done       ...    0.0 sec
Grid point division into batches done        ...    0.3 sec
Reduced shell lists constructed in    0.5 sec

Total number of grid points                  ...    76604
Total number of batches                      ...     1206
Average number of points per batch           ...       63
Average number of grid points per atom       ...     4506
Average number of shells per batch           ...    51.50 (66.03%)
Average number of basis functions per batch  ...   105.38 (63.48%)
Average number of large shells per batch     ...    37.41 (72.64%)
Average number of large basis fcns per batch ...    75.89 (72.01%)
Maximum spatial batch extension              ...  10.19,  9.76, 14.28 au
Average spatial batch extension              ...   0.23,  0.23,  0.29 au

Final grid set up in    0.6 sec
Final integration                            ... done (   0.3 sec)
Change in XC energy                          ...     0.000123917
Integrated number of electrons               ...    70.000006978
Previous integrated no of electrons          ...    70.003827932
Old exchange energy                            =    -12.260519221 Eh
New exchange energy                            =    -12.260254718 Eh
Exchange energy change after final integration =      0.000264502 Eh
Total energy after final integration           =   -488.402100727 Eh
Final COS-X integration done in                =     1.993 sec

----------------
TOTAL SCF ENERGY
----------------

Total Energy       :         -488.40210073 Eh          -13290.09682 eV

Components:
Nuclear Repulsion  :          442.14712900 Eh           12031.43505 eV
Electronic Energy  :         -930.54922973 Eh          -25321.53186 eV
One Electron Energy:        -1542.87056801 Eh          -41983.64256 eV
Two Electron Energy:          612.32133828 Eh           16662.11070 eV

Virial components:
Potential Energy   :         -973.95143242 Eh          -26502.56584 eV
Kinetic Energy     :          485.54933169 Eh           13212.46902 eV
Virial Ratio       :            2.00587534


DFT components:
N(Alpha)           :       35.000003489202 electrons
N(Beta)            :       35.000003489202 electrons
N(Total)           :       70.000006978404 electrons
E(X)               :      -48.793125443904 Eh       
E(C)               :       -2.849657945085 Eh       
E(XC)              :      -51.642783388989 Eh       

---------------
SCF CONVERGENCE
---------------

  Last Energy change         ...   -7.2566e-09  Tolerance :   1.0000e-08
  Last MAX-Density change    ...    2.2037e-13  Tolerance :   1.0000e-07
  Last RMS-Density change    ...    1.4537e-15  Tolerance :   5.0000e-09
  Last Orbital Gradient      ...    1.8518e-06  Tolerance :   1.0000e-05
  Last Orbital Rotation      ...    4.0708e-06  Tolerance :   1.0000e-05

             **** THE GBW FILE WAS UPDATED (AT-v/e/frag_09_c00001.gbw) ****
             **** DENSITY FILE WAS UPDATED (AT-v/e/frag_09_c00001.scfp.tmp) ****
             **** ENERGY FILE WAS UPDATED (AT-v/e/frag_09_c00001.en.tmp) ****
----------------
ORBITAL ENERGIES
----------------

  NO   OCC          E(Eh)            E(eV) 
   0   2.0000     -19.125969      -520.4441 
   1   2.0000     -19.102499      -519.8054 
   2   2.0000     -14.350803      -390.5052 
   3   2.0000     -14.349716      -390.4756 
   4   2.0000     -14.334647      -390.0656 
   5   2.0000     -14.296139      -389.0177 
   6   2.0000     -10.313937      -280.6565 
   7   2.0000     -10.297228      -280.2018 
   8   2.0000     -10.259676      -279.1800 
   9   2.0000      -1.053524       -28.6678 
  10   2.0000      -1.037084       -28.2205 
  11   2.0000      -0.938716       -25.5438 
  12   2.0000      -0.926470       -25.2105 
  13   2.0000      -0.889570       -24.2064 
  14   2.0000      -0.846146       -23.0248 
  15   2.0000      -0.649357       -17.6699 
  16   2.0000      -0.614264       -16.7150 
  17   2.0000      -0.597645       -16.2628 
  18   2.0000      -0.556629       -15.1466 
  19   2.0000      -0.546888       -14.8816 
  20   2.0000      -0.504426       -13.7261 
  21   2.0000      -0.480029       -13.0623 
  22   2.0000      -0.454052       -12.3554 
  23   2.0000      -0.441806       -12.0221 
  24   2.0000      -0.438281       -11.9262 
  25   2.0000      -0.427338       -11.6285 
  26   2.0000      -0.413609       -11.2549 
  27   2.0000      -0.387074       -10.5328 
  28   2.0000      -0.369533       -10.0555 
  29   2.0000      -0.293199        -7.9784 
  30   2.0000      -0.278951        -7.5906 
  31   2.0000      -0.269690        -7.3386 
  32   2.0000      -0.259910        -7.0725 
  33   2.0000      -0.254976        -6.9383 
  34   2.0000      -0.237228        -6.4553 
  35   0.0000      -0.012444        -0.3386 
  36   0.0000       0.030990         0.8433 
  37   0.0000       0.050497         1.3741 
  38   0.0000       0.054610         1.4860 
  39   0.0000       0.078984         2.1493 
  40   0.0000       0.096141         2.6161 
  41   0.0000       0.098964         2.6930 
  42   0.0000       0.126253         3.4355 
  43   0.0000       0.138890         3.7794 
  44   0.0000       0.183226         4.9858 
  45   0.0000       0.221360         6.0235 
  46   0.0000       0.243969         6.6387 
  47   0.0000       0.289809         7.8861 
  48   0.0000       0.299101         8.1390 
  49   0.0000       0.307628         8.3710 
  50   0.0000       0.333131         9.0650 
  51   0.0000       0.341288         9.2869 
  52   0.0000       0.396865        10.7992 
  53   0.0000       0.442973        12.0539 
  54   0.0000       0.457291        12.4435 
  55   0.0000       0.466121        12.6838 
  56   0.0000       0.474473        12.9111 
  57   0.0000       0.485222        13.2036 
  58   0.0000       0.502833        13.6828 
  59   0.0000       0.523210        14.2373 
  60   0.0000       0.531920        14.4743 
  61   0.0000       0.540216        14.7000 
  62   0.0000       0.562522        15.3070 
  63   0.0000       0.581230        15.8161 
  64   0.0000       0.604576        16.4514 
  65   0.0000       0.635593        17.2954 
  66   0.0000       0.650752        17.7079 
  67   0.0000       0.672917        18.3110 
  68   0.0000       0.681244        18.5376 
  69   0.0000       0.703829        19.1521 
  70   0.0000       0.730887        19.8884 
  71   0.0000       0.749113        20.3844 
  72   0.0000       0.755471        20.5574 
  73   0.0000       0.776198        21.1214 
  74   0.0000       0.795608        21.6496 
  75   0.0000       0.806711        21.9517 
  76   0.0000       0.832217        22.6458 
  77   0.0000       0.857279        23.3278 
  78   0.0000       0.876694        23.8560 
  79   0.0000       0.885772        24.1031 
  80   0.0000       0.917246        24.9595 
  81   0.0000       0.951089        25.8804 
  82   0.0000       0.959463        26.1083 
  83   0.0000       0.987613        26.8743 
  84   0.0000       1.003019        27.2935 
  85   0.0000       1.017460        27.6865 
  86   0.0000       1.046771        28.4841 
  87   0.0000       1.064725        28.9726 
  88   0.0000       1.082831        29.4653 
  89   0.0000       1.101189        29.9649 
  90   0.0000       1.123584        30.5743 
  91   0.0000       1.138694        30.9854 
  92   0.0000       1.144536        31.1444 
  93   0.0000       1.190530        32.3960 
  94   0.0000       1.209187        32.9036 
  95   0.0000       1.236804        33.6551 
  96   0.0000       1.261256        34.3205 
  97   0.0000       1.271537        34.6003 
  98   0.0000       1.301379        35.4123 
  99   0.0000       1.320128        35.9225 
 100   0.0000       1.327331        36.1185 
 101   0.0000       1.352486        36.8030 
 102   0.0000       1.414413        38.4881 
 103   0.0000       1.473543        40.0971 
 104   0.0000       1.481185        40.3051 
 105   0.0000       1.515737        41.2453 
 106   0.0000       1.521121        41.3918 
 107   0.0000       1.545023        42.0422 
 108   0.0000       1.564872        42.5823 
 109   0.0000       1.579153        42.9709 
 110   0.0000       1.618212        44.0338 
 111   0.0000       1.621830        44.1322 
 112   0.0000       1.639745        44.6197 
 113   0.0000       1.672022        45.4980 
 114   0.0000       1.695049        46.1246 
 115   0.0000       1.717697        46.7409 
 116   0.0000       1.723797        46.9069 
 117   0.0000       1.731785        47.1243 
 118   0.0000       1.757970        47.8368 
 119   0.0000       1.788087        48.6563 
 120   0.0000       1.815234        49.3950 
 121   0.0000       1.831189        49.8292 
 122   0.0000       1.863682        50.7134 
 123   0.0000       1.899506        51.6882 
 124   0.0000       1.921030        52.2739 
 125   0.0000       1.995064        54.2885 
 126   0.0000       2.020992        54.9940 
 127   0.0000       2.058999        56.0282 
 128   0.0000       2.061459        56.0951 
 129   0.0000       2.073384        56.4196 
 130   0.0000       2.115112        57.5551 
 131   0.0000       2.162032        58.8319 
 132   0.0000       2.211892        60.1886 
 133   0.0000       2.235988        60.8443 
 134   0.0000       2.237228        60.8781 
 135   0.0000       2.243045        61.0364 
 136   0.0000       2.302380        62.6509 
 137   0.0000       2.360039        64.2199 
 138   0.0000       2.378135        64.7123 
 139   0.0000       2.412281        65.6415 
 140   0.0000       2.421055        65.8803 
 141   0.0000       2.434070        66.2344 
 142   0.0000       2.490574        67.7720 
 143   0.0000       2.525545        68.7236 
 144   0.0000       2.552697        69.4624 
 145   0.0000       2.575714        70.0887 
 146   0.0000       2.600469        70.7624 
 147   0.0000       2.651299        72.1455 
 148   0.0000       2.667035        72.5737 
 149   0.0000       2.701833        73.5206 
 150   0.0000       2.706852        73.6572 
 151   0.0000       2.730384        74.2975 
 152   0.0000       2.774896        75.5088 
 153   0.0000       2.832658        77.0805 
 154   0.0000       2.863756        77.9268 
 155   0.0000       2.891126        78.6715 
 156   0.0000       2.978447        81.0477 
 157   0.0000       3.049616        82.9843 
 158   0.0000       3.057955        83.2112 
 159   0.0000       3.123580        84.9969 
 160   0.0000       3.301353        89.8344 
 161   0.0000       3.357907        91.3733 
 162   0.0000       3.406252        92.6888 
 163   0.0000       3.469251        94.4031 
 164   0.0000       3.489929        94.9658 
 165   0.0000       3.522205        95.8441 
-------
TIMINGS
-------

Total SCF time: 0 days 0 hours 0 min 14 sec 

Total time                  ....      14.711 sec
Sum of individual times     ....      14.617 sec  ( 99.4%)

Fock matrix formation       ....      13.381 sec  ( 91.0%)
  Split-RI-J                ....       2.293 sec  ( 17.1% of F)
  Chain of spheres X        ....      10.086 sec  ( 75.4% of F)
  COS-X 1 center corr.      ....       0.000 sec  (  0.0% of F)
  XC integration            ....       0.952 sec  (  7.1% of F)
    Basis function eval.    ....       0.360 sec  ( 37.8% of XC)
    Density eval.           ....       0.153 sec  ( 16.0% of XC)
    XC-Functional eval.     ....       0.045 sec  (  4.7% of XC)
    XC-Potential eval.      ....       0.282 sec  ( 29.6% of XC)
Diagonalization             ....       0.008 sec  (  0.1%)
Density matrix formation    ....       0.026 sec  (  0.2%)
Population analysis         ....       0.000 sec  (  0.0%)
Initial guess               ....       0.009 sec  (  0.1%)
Orbital Transformation      ....       0.000 sec  (  0.0%)
Orbital Orthonormalization  ....       0.006 sec  (  0.0%)
DIIS solution               ....       0.002 sec  (  0.0%)
SOSCF solution              ....       0.124 sec  (  0.8%)
Grid generation             ....       1.067 sec  (  7.2%)


-------------------------------------------------------------------------------
                          DFT DISPERSION CORRECTION                            
                                                                               
                              DFTD3 V3.1  Rev 1                                
                          USING Becke-Johnson damping                          
-------------------------------------------------------------------------------
The B3LYP functional is recognized
Active option DFTDOPT                   ...         4   

molecular C6(AA) [au] = 2750.826796 


            DFT-D V3
 parameters
 s6 scaling factor         :     1.0000 
 a1 scaling factor         :     0.3981 
 s8 scaling factor         :     1.9889 
 a2 scaling factor         :     4.4211 
 ad hoc parameters k1-k3   :    16.0000     1.3333    -4.0000 

 Edisp/kcal,au: -14.377854642478  -0.022912567384 
 E6   /kcal   :  -7.128147940 
 E8   /kcal   :  -7.249706703 
 % E8         :  50.422729143 

-------------------------   ----------------
Dispersion correction           -0.022912567
-------------------------   ----------------


-------------------------   --------------------
FINAL SINGLE POINT ENERGY      -488.425013294792
-------------------------   --------------------

                                *** OPTIMIZATION RUN DONE ***

                            ***************************************
                            *     ORCA property calculations      *
                            ***************************************

                                    ---------------------
                                    Active property flags
                                    ---------------------
   (+) Dipole Moment


------------------------------------------------------------------------------
                       ORCA ELECTRIC PROPERTIES CALCULATION
------------------------------------------------------------------------------

Dipole Moment Calculation                       ... on
Quadrupole Moment Calculation                   ... off
Polarizability Calculation                      ... off
GBWName                                         ... AT-v/e/frag_09_c00001.gbw
Electron density file                           ... AT-v/e/frag_09_c00001.scfp.tmp
The origin for moment calculation is the CENTER OF MASS  = (-2.265084,  0.280532 -0.007475)

-------------
DIPOLE MOMENT
-------------
                                X             Y             Z
Electronic contribution:     -2.44139       1.60038      -0.47281
Nuclear contribution   :      2.42087      -2.12076       1.22520
                        -----------------------------------------
Total Dipole Moment    :     -0.02052      -0.52038       0.75239
                        -----------------------------------------
Magnitude (a.u.)       :      0.91505
Magnitude (Debye)      :      2.32586


Timings for individual modules:

Sum of individual times         ...      191.698 sec (=   3.195 min)
GTO integral calculation        ...        6.649 sec (=   0.111 min)   3.5 %
SCF iterations                  ...      148.448 sec (=   2.474 min)  77.4 %
SCF Gradient evaluation         ...       35.899 sec (=   0.598 min)  18.7 %
Geometry relaxation             ...        0.702 sec (=   0.012 min)   0.4 %
                             ****ORCA TERMINATED NORMALLY****
TOTAL RUN TIME: 0 days 0 hours 3 minutes 13 seconds 901 msec
