
                                 *****************
                                 * O   R   C   A *
                                 *****************

           --- An Ab Initio, DFT and Semiempirical electronic structure package ---

                  #######################################################
                  #                        -***-                        #
                  #  Department of molecular theory and spectroscopy    #
                  #              Directorship: Frank Neese              #
                  # Max Planck Institute for Chemical Energy Conversion #
                  #                  D-45470 Muelheim/Ruhr              #
                  #                       Germany                       #
                  #                                                     #
                  #                  All rights reserved                #
                  #                        -***-                        #
                  #######################################################


                         Program Version 4.0.1.2 - RELEASE -


 With contributions from (in alphabetic order):
   Daniel Aravena         : Magnetic Properties
   Michael Atanasov       : Ab Initio Ligand Field Theory
   Ute Becker             : Parallelization
   Martin Brehm           : Molecular dynamics
   Dmytro Bykov           : SCF Hessian
   Vijay G. Chilkuri      : MRCI spin determinant printing
   Dipayan Datta          : RHF DLPNO-CCSD density
   Achintya Kumar Dutta   : EOM-CC, STEOM-CC
   Dmitry Ganyushin       : Spin-Orbit,Spin-Spin,Magnetic field MRCI
   Yang Guo               : DLPNO-NEVPT2, CIM, IAO-localization
   Andreas Hansen         : Spin unrestricted coupled pair/coupled cluster methods
   Lee Huntington         : MR-EOM, pCC
   Robert Izsak           : Overlap fitted RIJCOSX, COSX-SCS-MP3, EOM
   Christian Kollmar      : KDIIS, OOCD, Brueckner-CCSD(T), CCSD density
   Simone Kossmann        : Meta GGA functionals, TD-DFT gradient, OOMP2, MP2 Hessian
   Martin Krupicka        : AUTO-CI
   Dagmar Lenk            : GEPOL surface
   Dimitrios Liakos       : Extrapolation schemes; parallel MDCI
   Dimitrios Manganas     : ROCIS; embedding schemes
   Dimitrios Pantazis     : SARC Basis sets
   Taras Petrenko         : DFT Hessian,TD-DFT gradient, ASA, ECA, R-Raman, ABS, FL, XAS/XES, NRVS
   Peter Pinski           : DLPNO-MP2
   Christoph Reimann      : Effective Core Potentials
   Marius Retegan         : Local ZFS, SOC
   Christoph Riplinger    : Optimizer, TS searches, QM/MM, DLPNO-CCSD(T), (RO)-DLPNO pert. Triples
   Tobias Risthaus        : Range-separated hybrids, TD-DFT gradient, RPA, STAB
   Michael Roemelt        : Restricted open shell CIS
   Masaaki Saitow         : Open-shell DLPNO
   Barbara Sandhoefer     : DKH picture change effects
   Kantharuban Sivalingam : CASSCF convergence, NEVPT2, FIC-MRCI
   Georgi Stoychev        : AutoAux
   Boris Wezisla          : Elementary symmetry handling
   Frank Wennmohs         : Technical directorship


 We gratefully acknowledge several colleagues who have allowed us to
 interface, adapt or use parts of their codes:
   Stefan Grimme, W. Hujo, H. Kruse,             : VdW corrections, initial TS optimization,
                  C. Bannwarth                     DFT functionals, gCP, sTDA/sTD-DF
   Ed Valeev                                     : LibInt (2-el integral package), F12 methods
   Garnet Chan, S. Sharma, J. Yang, R. Olivares  : DMRG
   Ulf Ekstrom                                   : XCFun DFT Library
   Mihaly Kallay                                 : mrcc  (arbitrary order and MRCC methods)
   Andreas Klamt, Michael Diedenhofen            : otool_cosmo (COSMO solvation model)
   Jiri Pittner, Ondrej Demel                    : Mk-CCSD
   Frank Weinhold                                : gennbo (NPA and NBO analysis)
   Christopher J. Cramer and Donald G. Truhlar   : smd solvation model


 Your calculation uses the libint2 library for the computation of 2-el integrals
 For citations please refer to: http://libint.valeyev.net

 This ORCA versions uses:
   CBLAS   interface :  Fast vector & matrix operations
   LAPACKE interface :  Fast linear algebra routines
   SCALAPACK package :  Parallel linear algebra routines


Your calculation utilizes the atom-pairwise dispersion correction
with the Becke-Johnson damping scheme (D3BJ)
Cite in your paper:
S.Grimme, S.Ehrlich, L.Goerigk, J Comput Chem, (2011), 32, 1456–1465 
S.Grimme, J.Antony, S.Ehrlich and H.Krieg, J.Chem.Phys., 132, (2010), 154104 
   

Your calculation utilizes the basis: cc-pVDZ 
       H, B-Ne : Obtained from the ccRepo (grant-hill.group.shef.ac.uk/ccrepo) Feb. 2017
                 T. H. Dunning, Jr., J. Chem. Phys. 90, 1007 (1989)
            He : Obtained from the ccRepo (grant-hill.group.shef.ac.uk/ccrepo) Feb. 2017
                 D. E. Woon, T. H. Dunning, Jr., J. Chem. Phys. 100, 2975 (1994)
  Li-Be, Na-Mg : Obtained from the ccRepo (grant-hill.group.shef.ac.uk/ccrepo) Feb. 2017
                 B. P. Prascher, D. E. Woon, K. A. Peterson, T. H. Dunning, Jr., A. K. Wilson, Theor. Chem. Acc. 128, 69 (2011)
         Al-Ar : Obtained from the ccRepo (grant-hill.group.shef.ac.uk/ccrepo) Feb. 2017
                 D. E. Woon, T. H. Dunning, Jr., J. Chem. Phys. 98, 1358 (1993)
            Ca : Obtained from the Peterson Research Group Website (tyr0.chem.wsu.edu/~kipeters) Feb. 2017
                 J. Koput, K. A. Peterson, J. Phys. Chem. 106, 9595 (2002)
         Sc-Zn : Obtained from the ccRepo (grant-hill.group.shef.ac.uk/ccrepo) Feb. 2017
                 N. B. Balabanov, K. A. Peterson, J. Chem. Phys. 123, 064107 (2005)
                 N. B. Balabanov, K. A. Peterson, J. Chem. Phys. 125, 074110 (2006)
         Ga-Kr : Obtained from the ccRepo (grant-hill.group.shef.ac.uk/ccrepo) Feb. 2017
                 A. K. Wilson, D. E. Woon, K. A. Peterson, T. H. Dunning, Jr., J. Chem. Phys. 110, 7667 (1999)

Your calculation utilizes the auxiliary basis: def2/J
   F. Weigend, Phys. Chem. Chem. Phys. 8, 1057 (2006).

================================================================================
                                        WARNINGS
                       Please study these warnings very carefully!
================================================================================

Warning: TCutStore was < 0. Adjusted to Thresh (uncritical)

WARNING: Geometry Optimization
  ===> : Switching off AutoStart
         For restart on a previous wavefunction, please use MOREAD

INFO   : the flag for use of LIBINT has been found!

================================================================================
                                       INPUT FILE
================================================================================
NAME = AT-v/e/frag_11_c00001.com
|  1> %pal nprocs 6 end
|  2> %maxcore 1000
|  3> ! b3lyp TIGHTSCF nopop D3BJ
|  4> ! cc-pvdz def2/J RIJCOSX
|  5> ! Opt
|  6> 
|  7> %geom
|  8> maxiter 60
|  9> TolE 1e-4
| 10> TolRMSG 2e-3
| 11> TolMaxG 3e-3
| 12> TolRMSD 2e-2
| 13> TolMaxD 3e-2
| 14> end
| 15> 
| 16> *xyz 0 1
| 17> N 3.8347 -1.6575 -0.1194
| 18> C 3.1389 -0.5703 -0.0754
| 19> C 1.6227 -0.642 -0.1219
| 20> N 1.0352 -1.865 -0.211
| 21> N 0.9156 0.4427 -0.0777
| 22> C -2.5112 1.5813 -0.1926
| 23> O -2.012 2.6525 -0.5099
| 24> N -1.802 0.4403 0.054
| 25> C -2.3397 -0.7637 0.4089
| 26> O -1.6795 -1.7737 0.6242
| 27> H 4.8343 -1.4261 -0.0879
| 28> H 3.5823 0.4352 -0.0096
| 29> H 1.6385 -2.641 0.0495
| 30> H 0.0829 -1.9336 0.1523
| 31> H 1.5216 1.2712 -0.0273
| 32> H -3.6005 1.4564 -0.0779
| 33> H -0.7828 0.4882 -0.0426
| 34> H -3.4391 -0.7531 0.4894
| 35> *
| 36> 
| 37> 
| 38>                          ****END OF INPUT****
================================================================================

                       *****************************
                       * Geometry Optimization Run *
                       *****************************

Geometry optimization settings:
Update method            Update   .... BFGS
Choice of coordinates    CoordSys .... Redundant Internals
Initial Hessian          InHess   .... Almoef's Model

Convergence Tolerances:
Energy Change            TolE     ....  1.0000e-04 Eh
Max. Gradient            TolMAXG  ....  3.0000e-03 Eh/bohr
RMS Gradient             TolRMSG  ....  2.0000e-03 Eh/bohr
Max. Displacement        TolMAXD  ....  3.0000e-02 bohr
RMS Displacement         TolRMSD  ....  2.0000e-02 bohr

------------------------------------------------------------------------------
                        ORCA OPTIMIZATION COORDINATE SETUP
------------------------------------------------------------------------------

The optimization will be done in new redundant internal coordinates
Making redundant internal coordinates   ...  (new redundants) done
Evaluating the initial hessian          ...  (Almloef) done
Evaluating the coordinates              ...  done
Calculating the B-matrix                .... done
Calculating the G-matrix                .... done
Diagonalizing the G-matrix              .... done
Small eigenvalue found = 2.617e-02
The first mode is                       ....   26
The number of degrees of freedom        ....   48

    -----------------------------------------------------------------
                    Redundant Internal Coordinates


    -----------------------------------------------------------------
         Definition                    Initial Value    Approx d2E/dq
    -----------------------------------------------------------------
      1. B(C   1,N   0)                  1.2915         0.803454   
      2. B(C   2,C   1)                  1.5186         0.389543   
      3. B(N   3,C   2)                  1.3597         0.625452   
      4. B(N   4,C   2)                  1.2956         0.791630   
      5. B(O   6,C   5)                  1.2237         1.030995   
      6. B(N   7,C   5)                  1.3659         0.611421   
      7. B(C   8,N   7)                  1.3655         0.612216   
      8. B(O   9,C   8)                  1.2257         1.023341   
      9. B(H  10,N   0)                  1.0265         0.407232   
     10. B(H  11,C   1)                  1.1009         0.345976   
     11. B(H  12,N   3)                  1.0169         0.421937   
     12. B(H  13,N   3)                  1.0216         0.414729   
     13. B(H  13,O   9)                  1.8315         0.021163   
     14. B(H  14,N   4)                  1.0277         0.405452   
     15. B(H  15,C   5)                  1.1024         0.344039   
     16. B(H  16,N   7)                  1.0249         0.409678   
     17. B(H  16,N   4)                  1.6994         0.034383   
     18. B(H  17,C   8)                  1.1024         0.344072   
     19. A(C   1,N   0,H  10)          109.5000         0.371062   
     20. A(N   0,C   1,C   2)          119.8080         0.415670   
     21. A(C   2,C   1,H  11)          116.5565         0.324417   
     22. A(N   0,C   1,H  11)          123.6348         0.364050   
     23. A(C   1,C   2,N   3)          118.4157         0.397668   
     24. A(C   1,C   2,N   4)          120.2876         0.414576   
     25. A(N   3,C   2,N   4)          121.2967         0.448424   
     26. A(C   2,N   3,H  13)          116.0963         0.356621   
     27. A(C   2,N   3,H  12)          114.4102         0.357666   
     28. A(H  12,N   3,H  13)          114.2503         0.300002   
     29. A(C   2,N   4,H  14)          110.7808         0.369838   
     30. A(H  14,N   4,H  16)          124.5222         0.208015   
     31. A(C   2,N   4,H  16)          124.6519         0.249663   
     32. A(O   6,C   5,H  15)          121.9554         0.379650   
     33. A(O   6,C   5,N   7)          124.4903         0.468617   
     34. A(N   7,C   5,H  15)          113.5542         0.347233   
     35. A(C   5,N   7,C   8)          125.3806         0.426376   
     36. A(C   8,N   7,H  16)          117.2120         0.354590   
     37. A(C   5,N   7,H  16)          117.4053         0.354512   
     38. A(N   7,C   8,O   9)          124.0630         0.468089   
     39. A(O   9,C   8,H  17)          122.1589         0.379167   
     40. A(N   7,C   8,H  17)          113.7781         0.347314   
     41. A(C   8,O   9,H  13)          123.0248         0.241562   
     42. A(N   3,H  13,O   9)          169.3640         0.196182   
     43. A(N   4,H  16,N   7)          174.0304         0.208295   
     44. D(C   2,C   1,N   0,H  10)    179.4152         0.049804   
     45. D(H  11,C   1,N   0,H  10)     -0.2586         0.049804   
     46. D(N   4,C   2,C   1,H  11)     -0.3374         0.010467   
     47. D(N   3,C   2,C   1,N   0)     -0.0651         0.010467   
     48. D(N   3,C   2,C   1,H  11)    179.6313         0.010467   
     49. D(N   4,C   2,C   1,N   0)    179.9662         0.010467   
     50. D(H  12,N   3,C   2,C   1)     18.2007         0.031720   
     51. D(H  13,N   3,C   2,N   4)    -25.4006         0.031720   
     52. D(H  13,N   3,C   2,C   1)    154.6310         0.031720   
     53. D(H  12,N   3,C   2,N   4)   -161.8309         0.031720   
     54. D(H  16,N   4,C   2,N   3)      3.2967         0.053291   
     55. D(H  16,N   4,C   2,C   1)   -176.7355         0.053291   
     56. D(H  14,N   4,C   2,N   3)   -179.0564         0.053291   
     57. D(H  14,N   4,C   2,C   1)      0.9114         0.053291   
     58. D(C   8,N   7,C   5,O   6)   -179.9993         0.030207   
     59. D(H  16,N   7,C   5,H  15)    179.5500         0.030207   
     60. D(H  16,N   7,C   5,O   6)     -0.5473         0.030207   
     61. D(C   8,N   7,C   5,H  15)      0.0980         0.030207   
     62. D(H  17,C   8,N   7,H  16)   -179.5809         0.030291   
     63. D(H  17,C   8,N   7,C   5)     -0.1279         0.030291   
     64. D(O   9,C   8,N   7,H  16)      0.5144         0.030291   
     65. D(O   9,C   8,N   7,C   5)    179.9673         0.030291   
     66. D(H  13,O   9,C   8,H  17)    166.1753         0.086401   
     67. D(H  13,O   9,C   8,N   7)    -13.9276         0.086401   
     68. D(N   3,H  13,O   9,C   8)    -12.0789         0.001710   
     69. D(O   9,H  13,N   3,H  12)   -175.9895         0.194259   
     70. D(O   9,H  13,N   3,C   2)     47.5115         0.194259   
     71. D(N   4,H  16,N   7,C   8)    -30.7290         0.188374   
     72. D(N   4,H  16,N   7,C   5)    149.7734         0.188374   
     73. D(N   7,H  16,N   4,H  14)   -130.6246         0.002154   
     74. D(N   7,H  16,N   4,C   2)     46.7050         0.002154   
    -----------------------------------------------------------------

Number of atoms                         .... 18
Number of degrees of freedom            .... 74

         *************************************************************
         *                GEOMETRY OPTIMIZATION CYCLE   1            *
         *************************************************************
---------------------------------
CARTESIAN COORDINATES (ANGSTROEM)
---------------------------------
  N      3.834700   -1.657500   -0.119400
  C      3.138900   -0.570300   -0.075400
  C      1.622700   -0.642000   -0.121900
  N      1.035200   -1.865000   -0.211000
  N      0.915600    0.442700   -0.077700
  C     -2.511200    1.581300   -0.192600
  O     -2.012000    2.652500   -0.509900
  N     -1.802000    0.440300    0.054000
  C     -2.339700   -0.763700    0.408900
  O     -1.679500   -1.773700    0.624200
  H      4.834300   -1.426100   -0.087900
  H      3.582300    0.435200   -0.009600
  H      1.638500   -2.641000    0.049500
  H      0.082900   -1.933600    0.152300
  H      1.521600    1.271200   -0.027300
  H     -3.600500    1.456400   -0.077900
  H     -0.782800    0.488200   -0.042600
  H     -3.439100   -0.753100    0.489400

----------------------------
CARTESIAN COORDINATES (A.U.)
----------------------------
  NO LB      ZA    FRAG     MASS         X           Y           Z
   0 N     7.0000    0    14.007    7.246533   -3.132221   -0.225633
   1 C     6.0000    0    12.011    5.931661   -1.077711   -0.142485
   2 C     6.0000    0    12.011    3.066459   -1.213204   -0.230358
   3 N     7.0000    0    14.007    1.956244   -3.524339   -0.398732
   4 N     7.0000    0    14.007    1.730233    0.836582   -0.146832
   5 C     6.0000    0    12.011   -4.745480    2.988224   -0.363961
   6 O     8.0000    0    15.999   -3.802129    5.012499   -0.963571
   7 N     7.0000    0    14.007   -3.405286    0.832046    0.102045
   8 C     6.0000    0    12.011   -4.421392   -1.443184    0.772709
   9 O     8.0000    0    15.999   -3.173795   -3.351807    1.179567
  10 H     1.0000    0     1.008    9.135503   -2.694938   -0.166107
  11 H     1.0000    0     1.008    6.769566    0.822409   -0.018141
  12 H     1.0000    0     1.008    3.096316   -4.990767    0.093541
  13 H     1.0000    0     1.008    0.156658   -3.653974    0.287805
  14 H     1.0000    0     1.008    2.875407    2.402220   -0.051590
  15 H     1.0000    0     1.008   -6.803959    2.752197   -0.147210
  16 H     1.0000    0     1.008   -1.479278    0.922564   -0.080502
  17 H     1.0000    0     1.008   -6.498957   -1.423153    0.924832

--------------------------------
INTERNAL COORDINATES (ANGSTROEM)
--------------------------------
 N      0   0   0     0.000000000000     0.00000000     0.00000000
 C      1   0   0     1.291540738808     0.00000000     0.00000000
 C      2   1   0     1.518606459884   119.80800440     0.00000000
 N      3   2   1     1.359714698016   118.41567439   359.93492356
 N      3   2   1     1.295576373665   120.28763697   179.96620642
 C      5   3   2     3.612834096662   141.30173390   177.81140613
 O      6   5   3     1.223662277755    84.09872189   200.72565904
 N      6   5   3     1.365890625197    40.40406948    19.37495203
 C      8   6   5     1.365537000597   125.38060207   178.37057133
 O      9   8   6     1.225690878648   124.06297648   179.96731596
 H      1   2   3     1.026517593614   109.50000187   179.41516681
 H      2   1   3     1.100892115514   123.63479015   180.32621717
 H      4   3   2     1.016861416320   114.41016623    18.20068474
 H      4   3   2     1.021551829326   116.09633175   154.63102969
 H      5   3   2     1.027710275321   110.78077019     0.91138296
 H      6   5   3     1.102420332723   153.92300904    22.97920875
 H      8   6   5     1.024887608472   117.40528748   357.82256549
 H      9   8   6     1.102394199005   113.77809824   359.87206764

---------------------------
INTERNAL COORDINATES (A.U.)
---------------------------
 N      0   0   0     0.000000000000     0.00000000     0.00000000
 C      1   0   0     2.440658287149     0.00000000     0.00000000
 C      2   1   0     2.869750314384   119.80800440     0.00000000
 N      3   2   1     2.569488399517   118.41567439   359.93492356
 N      3   2   1     2.448284531806   120.28763697   179.96620642
 C      5   3   2     6.827267009983   141.30173390   177.81140613
 O      6   5   3     2.312386585367    84.09872189   200.72565904
 N      6   5   3     2.581159210512    40.40406948    19.37495203
 C      8   6   5     2.580490956865   125.38060207   178.37057133
 O      9   8   6     2.316220085489   124.06297648   179.96731596
 H      1   2   3     1.939837123583   109.50000187   179.41516681
 H      2   1   3     2.080384601314   123.63479015   180.32621717
 H      4   3   2     1.921589592996   114.41016623    18.20068474
 H      4   3   2     1.930453189033   116.09633175   154.63102969
 H      5   3   2     1.942090965373   110.78077019     0.91138296
 H      6   5   3     2.083272513312   153.92300904    22.97920875
 H      8   6   5     1.936756898062   117.40528748   357.82256549
 H      9   8   6     2.083223127743   113.77809824   359.87206764

---------------------
BASIS SET INFORMATION
---------------------
There are 4 groups of distinct atoms

 Group   1 Type N   : 17s4p1d contracted to 3s2p1d pattern {881/31/1}
 Group   2 Type C   : 17s4p1d contracted to 3s2p1d pattern {881/31/1}
 Group   3 Type O   : 17s4p1d contracted to 3s2p1d pattern {881/31/1}
 Group   4 Type H   : 4s1p contracted to 2s1p pattern {31/1}

Atom   0N    basis set group =>   1
Atom   1C    basis set group =>   2
Atom   2C    basis set group =>   2
Atom   3N    basis set group =>   1
Atom   4N    basis set group =>   1
Atom   5C    basis set group =>   2
Atom   6O    basis set group =>   3
Atom   7N    basis set group =>   1
Atom   8C    basis set group =>   2
Atom   9O    basis set group =>   3
Atom  10H    basis set group =>   4
Atom  11H    basis set group =>   4
Atom  12H    basis set group =>   4
Atom  13H    basis set group =>   4
Atom  14H    basis set group =>   4
Atom  15H    basis set group =>   4
Atom  16H    basis set group =>   4
Atom  17H    basis set group =>   4
-------------------------------
AUXILIARY BASIS SET INFORMATION
-------------------------------
There are 4 groups of distinct atoms

 Group   1 Type N   : 12s5p4d2f1g contracted to 6s4p3d1f1g pattern {711111/2111/211/2/1}
 Group   2 Type C   : 12s5p4d2f1g contracted to 6s4p3d1f1g pattern {711111/2111/211/2/1}
 Group   3 Type O   : 12s5p4d2f1g contracted to 6s4p3d1f1g pattern {711111/2111/211/2/1}
 Group   4 Type H   : 5s2p1d contracted to 3s1p1d pattern {311/2/1}

Atom   0N    basis set group =>   1
Atom   1C    basis set group =>   2
Atom   2C    basis set group =>   2
Atom   3N    basis set group =>   1
Atom   4N    basis set group =>   1
Atom   5C    basis set group =>   2
Atom   6O    basis set group =>   3
Atom   7N    basis set group =>   1
Atom   8C    basis set group =>   2
Atom   9O    basis set group =>   3
Atom  10H    basis set group =>   4
Atom  11H    basis set group =>   4
Atom  12H    basis set group =>   4
Atom  13H    basis set group =>   4
Atom  14H    basis set group =>   4
Atom  15H    basis set group =>   4
Atom  16H    basis set group =>   4
Atom  17H    basis set group =>   4


           ************************************************************
           *        Program running with 6 parallel MPI-processes     *
           *              working on a common directory               *
           ************************************************************
------------------------------------------------------------------------------
                           ORCA GTO INTEGRAL CALCULATION
                           -- RI-GTO INTEGRALS CHOSEN --
------------------------------------------------------------------------------

                         BASIS SET STATISTICS AND STARTUP INFO

Gaussian basis set:
 # of primitive gaussian shells          ...  260
 # of primitive gaussian functions       ...  396
 # of contracted shells                  ...   84
 # of contracted basis functions         ...  180
 Highest angular momentum                ...    2
 Maximum contraction depth               ...    8
Auxiliary gaussian basis set:
 # of primitive gaussian shells          ...  304
 # of primitive gaussian functions       ...  828
 # of contracted shells                  ...  190
 # of contracted aux-basis functions     ...  578
 Highest angular momentum                ...    4
 Maximum contraction depth               ...    7
Ratio of auxiliary to basis functions    ...  3.21
Integral package used                  ... LIBINT
 One Electron integrals                  ... done
 Ordering auxiliary basis shells         ... done
 Integral threshhold             Thresh  ...  2.500e-11
 Primitive cut-off               TCut    ...  2.500e-12
 Pre-screening matrix                    ... done
 Shell pair data                         ... 
 Ordering of the shell pairs             ... done (   0.001 sec) 3141 of 3570 pairs
 Determination of significant pairs      ... done (   0.000 sec)
 Creation of shell pair data             ... done (   0.002 sec)
 Storage of shell pair data              ... done (   0.003 sec)
 Shell pair data done in (   0.005 sec)
 Computing two index integrals           ... done
 Cholesky decomposition of the V-matrix  ... done


Timings:
 Total evaluation time                   ...   0.418 sec (  0.007 min)
 One electron matrix time                ...   0.057 sec (  0.001 min) = 13.7%
 Schwartz matrix evaluation time         ...   0.310 sec (  0.005 min) = 74.0%
 Two index repulsion integral time       ...   0.012 sec (  0.000 min) =  3.0%
 Cholesky decomposition of V             ...   0.014 sec (  0.000 min) =  3.3%
 Three index repulsion integral time     ...   0.000 sec (  0.000 min) =  0.0%



           ************************************************************
           *        Program running with 6 parallel MPI-processes     *
           *              working on a common directory               *
           ************************************************************
-------------------------------------------------------------------------------
                                 ORCA SCF
-------------------------------------------------------------------------------

------------
SCF SETTINGS
------------
Hamiltonian:
 Density Functional     Method          .... DFT(GTOs)
 Exchange Functional    Exchange        .... B88
   X-Alpha parameter    XAlpha          ....  0.666667
   Becke's b parameter  XBeta           ....  0.004200
 Correlation Functional Correlation     .... LYP
 LDA part of GGA corr.  LDAOpt          .... VWN-5
 Gradients option       PostSCFGGA      .... off
 Hybrid DFT is turned on
   Fraction HF Exchange ScalHFX         ....  0.200000
   Scaling of DF-GGA-X  ScalDFX         ....  0.720000
   Scaling of DF-GGA-C  ScalDFC         ....  0.810000
   Scaling of DF-LDA-C  ScalLDAC        ....  1.000000
   Perturbative correction              ....  0.000000
   NL short-range parameter             ....  4.800000
 RI-approximation to the Coulomb term is turned on
   Number of auxiliary basis functions  .... 578
   RIJ-COSX (HFX calculated with COS-X)).... on


General Settings:
 Integral files         IntName         .... AT-v/e/frag_11_c00001
 Hartree-Fock type      HFTyp           .... RHF
 Total Charge           Charge          ....    0
 Multiplicity           Mult            ....    1
 Number of Electrons    NEL             ....   76
 Basis Dimension        Dim             ....  180
 Nuclear Repulsion      ENuc            ....    495.6676068091 Eh

Convergence Acceleration:
 DIIS                   CNVDIIS         .... on
   Start iteration      DIISMaxIt       ....    12
   Startup error        DIISStart       ....  0.200000
   # of expansion vecs  DIISMaxEq       ....     5
   Bias factor          DIISBfac        ....   1.050
   Max. coefficient     DIISMaxC        ....  10.000
 Newton-Raphson         CNVNR           .... off
 SOSCF                  CNVSOSCF        .... on
   Start iteration      SOSCFMaxIt      ....   150
   Startup grad/error   SOSCFStart      ....  0.003300
 Level Shifting         CNVShift        .... on
   Level shift para.    LevelShift      ....    0.2500
   Turn off err/grad.   ShiftErr        ....    0.0010
 Zerner damping         CNVZerner       .... off
 Static damping         CNVDamp         .... on
   Fraction old density DampFac         ....    0.7000
   Max. Damping (<1)    DampMax         ....    0.9800
   Min. Damping (>=0)   DampMin         ....    0.0000
   Turn off err/grad.   DampErr         ....    0.1000
 Fernandez-Rico         CNVRico         .... off

SCF Procedure:
 Maximum # iterations   MaxIter         ....   125
 SCF integral mode      SCFMode         .... Direct
   Integral package                     .... LIBINT
 Reset frequeny         DirectResetFreq ....    20
 Integral Threshold     Thresh          ....  2.500e-11 Eh
 Primitive CutOff       TCut            ....  2.500e-12 Eh

Convergence Tolerance:
 Convergence Check Mode ConvCheckMode   .... Total+1el-Energy
 Convergence forced     ConvForced      .... 0
 Energy Change          TolE            ....  1.000e-08 Eh
 1-El. energy change                    ....  1.000e-05 Eh
 Orbital Gradient       TolG            ....  1.000e-05
 Orbital Rotation angle TolX            ....  1.000e-05
 DIIS Error             TolErr          ....  5.000e-07


Diagonalization of the overlap matrix:
Smallest eigenvalue                        ... 2.409e-03
Time for diagonalization                   ...    0.008 sec
Threshold for overlap eigenvalues          ... 1.000e-08
Number of eigenvalues below threshold      ... 0
Time for construction of square roots      ...    0.004 sec
Total time needed                          ...    0.012 sec

-------------------
DFT GRID GENERATION
-------------------

General Integration Accuracy     IntAcc      ...  4.340
Radial Grid Type                 RadialGrid  ... Gauss-Chebyshev
Angular Grid (max. acc.)         AngularGrid ... Lebedev-110
Angular grid pruning method      GridPruning ... 3 (G Style)
Weight generation scheme         WeightScheme... Becke
Basis function cutoff            BFCut       ...    1.0000e-11
Integration weight cutoff        WCut        ...    1.0000e-14
Grids for H and He will be reduced by one unit

# of grid points (after initial pruning)     ...  23216 (   0.0 sec)
# of grid points (after weights+screening)   ...  21719 (   0.0 sec)
nearest neighbour list constructed           ...    0.0 sec
Grid point re-assignment to atoms done       ...    0.0 sec
Grid point division into batches done        ...    0.0 sec
Reduced shell lists constructed in    0.1 sec

Total number of grid points                  ...    21719
Total number of batches                      ...      348
Average number of points per batch           ...       62
Average number of grid points per atom       ...     1207
Average number of shells per batch           ...    56.03 (66.71%)
Average number of basis functions per batch  ...   115.42 (64.12%)
Average number of large shells per batch     ...    41.76 (74.53%)
Average number of large basis fcns per batch ...    86.14 (74.63%)
Maximum spatial batch extension              ...   7.72, 15.83, 22.17 au
Average spatial batch extension              ...   0.37,  0.43,  0.70 au

Time for grid setup =    0.127 sec

------------------------------
INITIAL GUESS: MODEL POTENTIAL
------------------------------
Loading Hartree-Fock densities                     ... done
Calculating cut-offs                               ... done
Setting up the integral package                    ... done
Initializing the effective Hamiltonian             ... done
Starting the Coulomb interaction                   ... done (   0.1 sec)
Reading the grid                                   ... done
Mapping shells                                     ... done
Starting the XC term evaluation                    ... done (   0.1 sec)
  promolecular density results
     # of electrons  =     76.000192412
     EX              =    -65.574064088
     EC              =     -2.615581848
     EX+EC           =    -68.189645936
Transforming the Hamiltonian                       ... done (   0.0 sec)
Diagonalizing the Hamiltonian                      ... done (   0.0 sec)
Back transforming the eigenvectors                 ... done (   0.0 sec)
Now organizing SCF variables                       ... done
                      ------------------
                      INITIAL GUESS DONE (   0.4 sec)
                      ------------------
--------------------
COSX GRID GENERATION
--------------------

General Integration Accuracy     IntAcc      ...  3.340
Radial Grid Type                 RadialGrid  ... Gauss-Chebyshev
Angular Grid (max. acc.)         AngularGrid ... Lebedev-50
Angular grid pruning method      GridPruning ... 3 (G Style)
Weight generation scheme         WeightScheme... Becke
Basis function cutoff            BFCut       ...    1.0000e-11
Integration weight cutoff        WCut        ...    1.0000e-14
Grids for H and He will be reduced by one unit

# of grid points (after initial pruning)     ...   8304 (   0.0 sec)
# of grid points (after weights+screening)   ...   7820 (   0.0 sec)
nearest neighbour list constructed           ...    0.0 sec
Grid point re-assignment to atoms done       ...    0.0 sec
Grid point division into batches done        ...    0.0 sec
Reduced shell lists constructed in    0.0 sec

Total number of grid points                  ...     7820
Total number of batches                      ...      131
Average number of points per batch           ...       59
Average number of grid points per atom       ...      434
Average number of shells per batch           ...    56.52 (67.29%)
Average number of basis functions per batch  ...   116.61 (64.78%)
Average number of large shells per batch     ...    42.48 (75.15%)
Average number of large basis fcns per batch ...    88.04 (75.50%)
Maximum spatial batch extension              ...   5.45,  9.92, 27.23 au
Average spatial batch extension              ...   0.38,  0.53,  1.13 au

Overlap Fitting                  UseSFitting ... on
Constructing numerical overlap ... done (      0.0 sec)
Inverting numerical overlap    ... done (      0.0 sec)
Obtaining analytic overlap     ... done (      0.0 sec)
Final contraction and storage  ... done (      0.0 sec)


General Integration Accuracy     IntAcc      ...  3.670
Radial Grid Type                 RadialGrid  ... Gauss-Chebyshev
Angular Grid (max. acc.)         AngularGrid ... Lebedev-50
Angular grid pruning method      GridPruning ... 3 (G Style)
Weight generation scheme         WeightScheme... Becke
Basis function cutoff            BFCut       ...    1.0000e-11
Integration weight cutoff        WCut        ...    1.0000e-14
Grids for H and He will be reduced by one unit

# of grid points (after initial pruning)     ...  10596 (   0.0 sec)
# of grid points (after weights+screening)   ...   9960 (   0.0 sec)
nearest neighbour list constructed           ...    0.0 sec
Grid point re-assignment to atoms done       ...    0.0 sec
Grid point division into batches done        ...    0.0 sec
Reduced shell lists constructed in    0.0 sec

Total number of grid points                  ...     9960
Total number of batches                      ...      164
Average number of points per batch           ...       60
Average number of grid points per atom       ...      553
Average number of shells per batch           ...    57.03 (67.90%)
Average number of basis functions per batch  ...   117.86 (65.48%)
Average number of large shells per batch     ...    42.66 (74.79%)
Average number of large basis fcns per batch ...    88.52 (75.10%)
Maximum spatial batch extension              ...   6.32, 10.51, 25.36 au
Average spatial batch extension              ...   0.40,  0.49,  1.06 au

Overlap Fitting                  UseSFitting ... on
Constructing numerical overlap ... done (      0.0 sec)
Inverting numerical overlap    ... done (      0.0 sec)
Obtaining analytic overlap     ... done (      0.0 sec)
Final contraction and storage  ... done (      0.0 sec)


General Integration Accuracy     IntAcc      ...  4.010
Radial Grid Type                 RadialGrid  ... Gauss-Chebyshev
Angular Grid (max. acc.)         AngularGrid ... Lebedev-110
Angular grid pruning method      GridPruning ... 3 (G Style)
Weight generation scheme         WeightScheme... Becke
Basis function cutoff            BFCut       ...    1.0000e-11
Integration weight cutoff        WCut        ...    1.0000e-14
Grids for H and He will be reduced by one unit

# of grid points (after initial pruning)     ...  19932 (   0.0 sec)
# of grid points (after weights+screening)   ...  18677 (   0.0 sec)
nearest neighbour list constructed           ...    0.0 sec
Grid point re-assignment to atoms done       ...    0.0 sec
Grid point division into batches done        ...    0.0 sec
Reduced shell lists constructed in    0.1 sec

Total number of grid points                  ...    18677
Total number of batches                      ...      301
Average number of points per batch           ...       62
Average number of grid points per atom       ...     1038
Average number of shells per batch           ...    56.10 (66.78%)
Average number of basis functions per batch  ...   115.40 (64.11%)
Average number of large shells per batch     ...    41.88 (74.67%)
Average number of large basis fcns per batch ...    86.35 (74.82%)
Maximum spatial batch extension              ...   7.26, 17.00, 21.51 au
Average spatial batch extension              ...   0.38,  0.48,  0.71 au

Overlap Fitting                  UseSFitting ... on
Constructing numerical overlap ... done (      0.0 sec)
Inverting numerical overlap    ... done (      0.0 sec)
Obtaining analytic overlap     ... done (      0.0 sec)
Final contraction and storage  ... done (      0.0 sec)

Time for X-Grid setup             =    0.334 sec
--------------
SCF ITERATIONS
--------------
ITER       Energy         Delta-E        Max-DP      RMS-DP      [F,P]     Damp
               ***  Starting incremental Fock matrix formation  ***
  0   -526.0277049392   0.000000000000 0.10315129  0.00285631  0.2708910 0.7000
  1   -526.2383251222  -0.210620183002 0.05826506  0.00176662  0.1097002 0.7000
                               ***Turning on DIIS***
  2   -526.3045705427  -0.066245420441 0.07663653  0.00228510  0.0458811 0.0000
  3   -526.4262921656  -0.121721622950 0.03738481  0.00123828  0.0621706 0.0000
  4   -526.4476315686  -0.021339402972 0.01359032  0.00037793  0.0191746 0.0000
  5   -526.4500193155  -0.002387746929 0.00368224  0.00011636  0.0037249 0.0000
                      *** Initiating the SOSCF procedure ***
                           *** Shutting down DIIS ***
                      *** Re-Reading the Fockian *** 
                      *** Removing any level shift *** 
ITER      Energy       Delta-E        Grad      Rot      Max-DP    RMS-DP
  6   -526.45010197  -0.0000826557  0.000649  0.000649  0.001299  0.000041
               *** Restarting incremental Fock matrix formation ***
  7   -526.45013705  -0.0000350789  0.000276  0.000858  0.000960  0.000028
  8   -526.45013638   0.0000006719  0.000413  0.000569  0.000647  0.000012
  9   -526.45013835  -0.0000019669  0.000071  0.000160  0.000202  0.000008
 10   -526.45013834   0.0000000040  0.000092  0.000102  0.000143  0.000003
 11   -526.45013849  -0.0000001512  0.000013  0.000066  0.000073  0.000002
 12   -526.45013848   0.0000000135  0.000023  0.000042  0.000055  0.000001
 13   -526.45013850  -0.0000000170  0.000003  0.000005  0.000015  0.000000
 14   -526.45013849   0.0000000023  0.000003  0.000003  0.000009  0.000000
                  ***Gradient check signals convergence***
              ***Rediagonalizing the Fockian in SOSCF/NRSCF***

               *****************************************************
               *                     SUCCESS                       *
               *           SCF CONVERGED AFTER  15 CYCLES          *
               *****************************************************

Setting up the final grid:

General Integration Accuracy     IntAcc      ...  4.670
Radial Grid Type                 RadialGrid  ... Gauss-Chebyshev
Angular Grid (max. acc.)         AngularGrid ... Lebedev-302
Angular grid pruning method      GridPruning ... 3 (G Style)
Weight generation scheme         WeightScheme... Becke
Basis function cutoff            BFCut       ...    1.0000e-11
Integration weight cutoff        WCut        ...    1.0000e-14
Grids for H and He will be reduced by one unit

# of grid points (after initial pruning)     ...  89272 (   0.0 sec)
# of grid points (after weights+screening)   ...  82319 (   0.1 sec)
nearest neighbour list constructed           ...    0.0 sec
Grid point re-assignment to atoms done       ...    0.0 sec
Grid point division into batches done        ...    0.4 sec
Reduced shell lists constructed in    0.6 sec

Total number of grid points                  ...    82319
Total number of batches                      ...     1295
Average number of points per batch           ...       63
Average number of grid points per atom       ...     4573
Average number of shells per batch           ...    52.43 (62.42%)
Average number of basis functions per batch  ...   107.24 (59.58%)
Average number of large shells per batch     ...    38.99 (74.35%)
Average number of large basis fcns per batch ...    80.16 (74.74%)
Maximum spatial batch extension              ...   8.44, 13.52, 23.19 au
Average spatial batch extension              ...   0.26,  0.28,  0.34 au

Final grid set up in    0.7 sec
Final integration                            ... done (   0.3 sec)
Change in XC energy                          ...    -0.000375021
Integrated number of electrons               ...    76.000073804
Previous integrated no of electrons          ...    76.000184761
Old exchange energy                            =    -13.283912237 Eh
New exchange energy                            =    -13.283395825 Eh
Exchange energy change after final integration =      0.000516412 Eh
Total energy after final integration           =   -526.449997103 Eh
Final COS-X integration done in                =     2.359 sec

----------------
TOTAL SCF ENERGY
----------------

Total Energy       :         -526.44999710 Eh          -14325.43271 eV

Components:
Nuclear Repulsion  :          495.66760681 Eh           13487.80129 eV
Electronic Energy  :        -1022.11760391 Eh          -27813.23400 eV
One Electron Energy:        -1699.84842988 Eh          -46255.22735 eV
Two Electron Energy:          677.73082597 Eh           18441.99335 eV

Virial components:
Potential Energy   :        -1049.84346645 Eh          -28567.69308 eV
Kinetic Energy     :          523.39346935 Eh           14242.26036 eV
Virial Ratio       :            2.00583983


DFT components:
N(Alpha)           :       38.000036902194 electrons
N(Beta)            :       38.000036902194 electrons
N(Total)           :       76.000073804389 electrons
E(X)               :      -52.870559531178 Eh       
E(C)               :       -3.086990078034 Eh       
E(XC)              :      -55.957549609212 Eh       

---------------
SCF CONVERGENCE
---------------

  Last Energy change         ...    4.5247e-11  Tolerance :   1.0000e-08
  Last MAX-Density change    ...    4.3443e-13  Tolerance :   1.0000e-07
  Last RMS-Density change    ...    2.8695e-15  Tolerance :   5.0000e-09
  Last Orbital Gradient      ...    4.3437e-07  Tolerance :   1.0000e-05
  Last Orbital Rotation      ...    1.6674e-06  Tolerance :   1.0000e-05

             **** THE GBW FILE WAS UPDATED (AT-v/e/frag_11_c00001.gbw) ****
             **** DENSITY FILE WAS UPDATED (AT-v/e/frag_11_c00001.scfp.tmp) ****
             **** ENERGY FILE WAS UPDATED (AT-v/e/frag_11_c00001.en.tmp) ****
----------------
ORBITAL ENERGIES
----------------

  NO   OCC          E(Eh)            E(eV) 
   0   2.0000     -19.141046      -520.8543 
   1   2.0000     -19.125436      -520.4296 
   2   2.0000     -14.361720      -390.8023 
   3   2.0000     -14.349780      -390.4774 
   4   2.0000     -14.330553      -389.9542 
   5   2.0000     -14.310505      -389.4086 
   6   2.0000     -10.310809      -280.5714 
   7   2.0000     -10.298065      -280.2246 
   8   2.0000     -10.271611      -279.5048 
   9   2.0000     -10.260914      -279.2137 
  10   2.0000      -1.063173       -28.9304 
  11   2.0000      -1.039929       -28.2979 
  12   2.0000      -0.959649       -26.1134 
  13   2.0000      -0.936173       -25.4746 
  14   2.0000      -0.910880       -24.7863 
  15   2.0000      -0.855854       -23.2890 
  16   2.0000      -0.671282       -18.2665 
  17   2.0000      -0.664524       -18.0826 
  18   2.0000      -0.634794       -17.2736 
  19   2.0000      -0.581057       -15.8114 
  20   2.0000      -0.543367       -14.7858 
  21   2.0000      -0.527271       -14.3478 
  22   2.0000      -0.502472       -13.6730 
  23   2.0000      -0.491381       -13.3711 
  24   2.0000      -0.457819       -12.4579 
  25   2.0000      -0.446043       -12.1374 
  26   2.0000      -0.444458       -12.0943 
  27   2.0000      -0.433179       -11.7874 
  28   2.0000      -0.420081       -11.4310 
  29   2.0000      -0.402587       -10.9550 
  30   2.0000      -0.383103       -10.4248 
  31   2.0000      -0.327642        -8.9156 
  32   2.0000      -0.311125        -8.4662 
  33   2.0000      -0.296442        -8.0666 
  34   2.0000      -0.282815        -7.6958 
  35   2.0000      -0.273291        -7.4366 
  36   2.0000      -0.258402        -7.0315 
  37   2.0000      -0.246033        -6.6949 
  38   0.0000      -0.061446        -1.6720 
  39   0.0000      -0.032897        -0.8952 
  40   0.0000       0.039114         1.0644 
  41   0.0000       0.046159         1.2561 
  42   0.0000       0.071042         1.9332 
  43   0.0000       0.074194         2.0189 
  44   0.0000       0.081604         2.2206 
  45   0.0000       0.102435         2.7874 
  46   0.0000       0.122372         3.3299 
  47   0.0000       0.137522         3.7422 
  48   0.0000       0.189162         5.1473 
  49   0.0000       0.216908         5.9024 
  50   0.0000       0.226909         6.1745 
  51   0.0000       0.241374         6.5681 
  52   0.0000       0.278957         7.5908 
  53   0.0000       0.312761         8.5107 
  54   0.0000       0.323115         8.7924 
  55   0.0000       0.357419         9.7259 
  56   0.0000       0.365214         9.9380 
  57   0.0000       0.386497        10.5171 
  58   0.0000       0.414138        11.2693 
  59   0.0000       0.442674        12.0458 
  60   0.0000       0.464199        12.6315 
  61   0.0000       0.465607        12.6698 
  62   0.0000       0.474833        12.9209 
  63   0.0000       0.492867        13.4116 
  64   0.0000       0.511937        13.9305 
  65   0.0000       0.526978        14.3398 
  66   0.0000       0.532117        14.4797 
  67   0.0000       0.552044        15.0219 
  68   0.0000       0.559939        15.2367 
  69   0.0000       0.565844        15.3974 
  70   0.0000       0.607452        16.5296 
  71   0.0000       0.622845        16.9485 
  72   0.0000       0.629152        17.1201 
  73   0.0000       0.640787        17.4367 
  74   0.0000       0.660857        17.9828 
  75   0.0000       0.666927        18.1480 
  76   0.0000       0.679445        18.4887 
  77   0.0000       0.708970        19.2921 
  78   0.0000       0.720002        19.5922 
  79   0.0000       0.746473        20.3126 
  80   0.0000       0.756528        20.5862 
  81   0.0000       0.789233        21.4761 
  82   0.0000       0.802809        21.8455 
  83   0.0000       0.832337        22.6490 
  84   0.0000       0.850107        23.1326 
  85   0.0000       0.856898        23.3174 
  86   0.0000       0.870394        23.6846 
  87   0.0000       0.891119        24.2486 
  88   0.0000       0.897919        24.4336 
  89   0.0000       0.927606        25.2414 
  90   0.0000       0.935165        25.4471 
  91   0.0000       0.955776        26.0080 
  92   0.0000       0.970778        26.4162 
  93   0.0000       0.993635        27.0382 
  94   0.0000       1.015034        27.6205 
  95   0.0000       1.023015        27.8376 
  96   0.0000       1.061404        28.8823 
  97   0.0000       1.072435        29.1824 
  98   0.0000       1.083929        29.4952 
  99   0.0000       1.103721        30.0338 
 100   0.0000       1.135910        30.9097 
 101   0.0000       1.154347        31.4114 
 102   0.0000       1.170131        31.8409 
 103   0.0000       1.189930        32.3796 
 104   0.0000       1.244943        33.8766 
 105   0.0000       1.260223        34.2924 
 106   0.0000       1.272420        34.6243 
 107   0.0000       1.286222        34.9999 
 108   0.0000       1.300823        35.3972 
 109   0.0000       1.325186        36.0601 
 110   0.0000       1.342889        36.5419 
 111   0.0000       1.344502        36.5858 
 112   0.0000       1.356911        36.9234 
 113   0.0000       1.460208        39.7343 
 114   0.0000       1.479750        40.2661 
 115   0.0000       1.500258        40.8241 
 116   0.0000       1.511210        41.1221 
 117   0.0000       1.518030        41.3077 
 118   0.0000       1.534089        41.7447 
 119   0.0000       1.551137        42.2086 
 120   0.0000       1.569248        42.7014 
 121   0.0000       1.603966        43.6461 
 122   0.0000       1.622992        44.1639 
 123   0.0000       1.640684        44.6453 
 124   0.0000       1.659829        45.1662 
 125   0.0000       1.684561        45.8392 
 126   0.0000       1.690364        45.9972 
 127   0.0000       1.706933        46.4480 
 128   0.0000       1.716173        46.6994 
 129   0.0000       1.733118        47.1605 
 130   0.0000       1.741336        47.3842 
 131   0.0000       1.772253        48.2254 
 132   0.0000       1.795304        48.8527 
 133   0.0000       1.837948        50.0131 
 134   0.0000       1.871879        50.9364 
 135   0.0000       1.892467        51.4966 
 136   0.0000       1.902153        51.7602 
 137   0.0000       1.924955        52.3807 
 138   0.0000       1.963163        53.4204 
 139   0.0000       2.044439        55.6320 
 140   0.0000       2.052468        55.8505 
 141   0.0000       2.079804        56.5943 
 142   0.0000       2.125937        57.8497 
 143   0.0000       2.135912        58.1211 
 144   0.0000       2.187328        59.5202 
 145   0.0000       2.192399        59.6582 
 146   0.0000       2.214000        60.2460 
 147   0.0000       2.246061        61.1184 
 148   0.0000       2.275444        61.9180 
 149   0.0000       2.290763        62.3348 
 150   0.0000       2.305327        62.7311 
 151   0.0000       2.339261        63.6545 
 152   0.0000       2.357901        64.1618 
 153   0.0000       2.372023        64.5460 
 154   0.0000       2.393600        65.1332 
 155   0.0000       2.474692        67.3398 
 156   0.0000       2.499626        68.0183 
 157   0.0000       2.539196        69.0950 
 158   0.0000       2.574820        70.0644 
 159   0.0000       2.596444        70.6528 
 160   0.0000       2.605607        70.9022 
 161   0.0000       2.660004        72.3824 
 162   0.0000       2.687907        73.1417 
 163   0.0000       2.702935        73.5506 
 164   0.0000       2.733330        74.3777 
 165   0.0000       2.741264        74.5936 
 166   0.0000       2.782116        75.7052 
 167   0.0000       2.816372        76.6374 
 168   0.0000       2.891021        78.6687 
 169   0.0000       2.898644        78.8761 
 170   0.0000       2.976210        80.9868 
 171   0.0000       3.036828        82.6363 
 172   0.0000       3.091412        84.1216 
 173   0.0000       3.143655        85.5432 
 174   0.0000       3.285844        89.4124 
 175   0.0000       3.310136        90.0734 
 176   0.0000       3.417280        92.9889 
 177   0.0000       3.439461        93.5925 
 178   0.0000       3.475605        94.5760 
 179   0.0000       3.504107        95.3516 
-------
TIMINGS
-------

Total SCF time: 0 days 0 hours 0 min 26 sec 

Total time                  ....      26.212 sec
Sum of individual times     ....      26.120 sec  ( 99.7%)

Fock matrix formation       ....      24.423 sec  ( 93.2%)
  Split-RI-J                ....       4.202 sec  ( 17.2% of F)
  Chain of spheres X        ....      18.436 sec  ( 75.5% of F)
  COS-X 1 center corr.      ....       0.000 sec  (  0.0% of F)
  XC integration            ....       1.681 sec  (  6.9% of F)
    Basis function eval.    ....       0.614 sec  ( 36.5% of XC)
    Density eval.           ....       0.276 sec  ( 16.4% of XC)
    XC-Functional eval.     ....       0.073 sec  (  4.4% of XC)
    XC-Potential eval.      ....       0.514 sec  ( 30.6% of XC)
Diagonalization             ....       0.067 sec  (  0.3%)
Density matrix formation    ....       0.024 sec  (  0.1%)
Population analysis         ....       0.000 sec  (  0.0%)
Initial guess               ....       0.282 sec  (  1.1%)
Orbital Transformation      ....       0.000 sec  (  0.0%)
Orbital Orthonormalization  ....       0.000 sec  (  0.0%)
DIIS solution               ....       0.022 sec  (  0.1%)
SOSCF solution              ....       0.150 sec  (  0.6%)
Grid generation             ....       1.152 sec  (  4.4%)


-------------------------------------------------------------------------------
                          DFT DISPERSION CORRECTION                            
                                                                               
                              DFTD3 V3.1  Rev 1                                
                          USING Becke-Johnson damping                          
-------------------------------------------------------------------------------
The B3LYP functional is recognized
Active option DFTDOPT                   ...         4   

molecular C6(AA) [au] = 3358.777278 


            DFT-D V3
 parameters
 s6 scaling factor         :     1.0000 
 a1 scaling factor         :     0.3981 
 s8 scaling factor         :     1.9889 
 a2 scaling factor         :     4.4211 
 ad hoc parameters k1-k3   :    16.0000     1.3333    -4.0000 

 Edisp/kcal,au: -16.313716934508  -0.025997559987 
 E6   /kcal   :  -8.007638945 
 E8   /kcal   :  -8.306077989 
 % E8         :  50.914687455 

-------------------------   ----------------
Dispersion correction           -0.025997560
-------------------------   ----------------


-------------------------   --------------------
FINAL SINGLE POINT ENERGY      -526.475994662660
-------------------------   --------------------



           ************************************************************
           *        Program running with 6 parallel MPI-processes     *
           *              working on a common directory               *
           ************************************************************
------------------------------------------------------------------------------
                         ORCA SCF GRADIENT CALCULATION
------------------------------------------------------------------------------

Gradient of the Kohn-Sham DFT energy:
Kohn-Sham wavefunction type      ... RKS
Hartree-Fock exchange scaling    ...    0.200
Number of operators              ...    1
Number of atoms                  ...   18
Basis set dimensions             ...  180
Integral neglect threshold       ... 2.5e-11
Integral primitive cutoff        ... 2.5e-12

Nuclear repulsion gradient       ... done
One Electron Gradient            ... done
Pre-screening matrix             ... done
RI-J gradient                    ... done
COSX-gradient                    ... done
Exchange-correlation gradient    ... done
Dispersion correction            ... done

------------------
CARTESIAN GRADIENT
------------------

   1   N   :    0.016148933   -0.019787428   -0.001351178
   2   C   :   -0.002161564    0.030711300    0.005151337
   3   C   :   -0.005176412   -0.004880994   -0.003811103
   4   N   :   -0.015306322    0.003906818   -0.002676074
   5   N   :   -0.009313746   -0.005590070    0.000481684
   6   C   :   -0.001259407   -0.023721641    0.006422208
   7   O   :    0.004790870    0.016737849   -0.005403708
   8   N   :    0.013614195    0.008609570   -0.002234330
   9   C   :   -0.005602188   -0.000283237    0.000388719
  10   O   :    0.007323605   -0.002801048    0.000804817
  11   H   :   -0.002297675    0.001256250   -0.000614041
  12   H   :    0.002986630   -0.003578946    0.000321118
  13   H   :   -0.002739727   -0.001143379    0.003617095
  14   H   :    0.005107186   -0.002409136    0.002361304
  15   H   :    0.002991397    0.002298810    0.001088072
  16   H   :    0.009211810    0.001861583   -0.001193136
  17   H   :   -0.026568040   -0.001509932    0.001182795
  18   H   :    0.007339146    0.001172035   -0.001343060

Difference to translation invariance:
           :   -0.0009113095    0.0008484040    0.0031925185

Norm of the cartesian gradient     ...    0.0657636698
RMS gradient                       ...    0.0089493019
MAX gradient                       ...    0.0307112996

-------
TIMINGS
-------

Total SCF gradient time            ...        5.354 sec

One electron gradient       ....       0.089 sec  (  1.7%)
Prescreening matrices       ....       0.123 sec  (  2.3%)
RI-J Coulomb gradient       ....       0.868 sec  ( 16.2%)
COSX gradient               ....       2.466 sec  ( 46.1%)
XC gradient                 ....       1.207 sec  ( 22.5%)
------------------------------------------------------------------------------
                         ORCA GEOMETRY RELAXATION STEP
------------------------------------------------------------------------------

Reading the OPT-File                    .... done
Getting information on internals        .... done
Copying old internal coords+grads       .... done
Making the new internal coordinates     .... (new redundants).... done
Validating the new internal coordinates .... (new redundants).... done
Calculating the B-matrix                .... done
Calculating the G,G- and P matrices     .... done
Transforming gradient to internals      .... done
Projecting the internal gradient        .... done
Number of atoms                         ....  18
Number of internal coordinates          ....  74
Current Energy                          ....  -526.475994663 Eh
Current gradient norm                   ....     0.065763670 Eh/bohr
Maximum allowed component of the step   ....  0.300
Current trust radius                    ....  0.300
Evaluating the initial hessian          ....  (Almloef) done
Projecting the Hessian                  .... done
Forming the augmented Hessian           .... done
Diagonalizing the augmented Hessian     .... done
Last element of RFO vector              ....  0.964528786
Lowest eigenvalues of augmented Hessian:
 -0.008268123  0.010717192  0.015934727  0.024913806  0.026797119
Length of the computed step             ....  0.273685652
The final length of the internal step   ....  0.273685652
Converting the step to cartesian space:
 Initial RMS(Int)=    0.0318153109
Transforming coordinates:
 Iter   0:  RMS(Cart)=    0.0808231521 RMS(Int)=    1.2616453764
 Iter   1:  RMS(Cart)=    0.0024902826 RMS(Int)=    0.0013819337
 Iter   2:  RMS(Cart)=    0.0001947555 RMS(Int)=    0.0000984051
 Iter   3:  RMS(Cart)=    0.0000207976 RMS(Int)=    0.0000119382
 Iter   4:  RMS(Cart)=    0.0000019006 RMS(Int)=    0.0000009440
 Iter   5:  RMS(Cart)=    0.0000001997 RMS(Int)=    0.0000001193
 Iter   6:  RMS(Cart)=    0.0000000187 RMS(Int)=    0.0000000094
done
Storing new coordinates                 .... done

                                .--------------------.
          ----------------------|Geometry convergence|-------------------------
          Item                value                   Tolerance       Converged
          ---------------------------------------------------------------------
          RMS gradient        0.0064864809            0.0020000000      NO
          MAX gradient        0.0308321057            0.0030000000      NO
          RMS step            0.0318153109            0.0200000000      NO
          MAX step            0.1421158989            0.0300000000      NO
          ........................................................
          Max(Bonds)      0.0752      Max(Angles)    1.84
          Max(Dihed)        5.41      Max(Improp)    0.00
          ---------------------------------------------------------------------

The optimization has not yet converged - more geometry cycles are needed


    ---------------------------------------------------------------------------
                         Redundant Internal Coordinates
                            (Angstroem and degrees)

        Definition                    Value    dE/dq     Step     New-Value
    ----------------------------------------------------------------------------
     1. B(C   1,N   0)                1.2915  0.023336 -0.0152    1.2763   
     2. B(C   2,C   1)                1.5186  0.015293 -0.0203    1.4983   
     3. B(N   3,C   2)                1.3597  0.003286 -0.0030    1.3568   
     4. B(N   4,C   2)                1.2956 -0.001710  0.0016    1.2971   
     5. B(O   6,C   5)                1.2237  0.018032 -0.0092    1.2145   
     6. B(N   7,C   5)                1.3659 -0.010985  0.0094    1.3753   
     7. B(C   8,N   7)                1.3655  0.000144  0.0002    1.3657   
     8. B(O   9,C   8)                1.2257  0.003720 -0.0022    1.2235   
     9. B(H  10,N   0)                1.0265 -0.001972  0.0025    1.0290   
    10. B(H  11,C   1)                1.1009 -0.002109  0.0032    1.1040   
    11. B(H  12,N   3)                1.0169  0.000103 -0.0001    1.0167   
    12. B(H  13,N   3)                1.0216 -0.009048  0.0101    1.0316   
    13. B(H  13,O   9)                1.8315 -0.005194  0.0752    1.9067   
    14. B(H  14,N   4)                1.0277  0.003668 -0.0047    1.0230   
    15. B(H  15,C   5)                1.1024 -0.009505  0.0143    1.1167   
    16. B(H  16,N   7)                1.0249 -0.030832  0.0403    1.0651   
    17. B(H  16,N   4)                1.6994 -0.004247  0.0645    1.7638   
    18. B(H  17,C   8)                1.1024 -0.007469  0.0112    1.1136   
    19. A(C   1,N   0,H  10)          109.50 -0.003096    0.47    109.97   
    20. A(N   0,C   1,C   2)          119.81  0.001589   -0.20    119.61   
    21. A(C   2,C   1,H  11)          116.56  0.003644   -0.61    115.95   
    22. A(N   0,C   1,H  11)          123.63 -0.005241    0.82    124.46   
    23. A(C   1,C   2,N   3)          118.42  0.012677   -1.84    116.58   
    24. A(C   1,C   2,N   4)          120.29 -0.007235    0.93    121.22   
    25. A(N   3,C   2,N   4)          121.30 -0.005442    0.90    122.20   
    26. A(C   2,N   3,H  13)          116.10  0.000872    0.02    116.12   
    27. A(C   2,N   3,H  12)          114.41  0.001506   -0.16    114.25   
    28. A(H  12,N   3,H  13)          114.25 -0.003841    1.17    115.42   
    29. A(C   2,N   4,H  14)          110.78 -0.004140    0.48    111.26   
    30. A(H  14,N   4,H  16)          124.52 -0.001982    0.26    124.78   
    31. A(C   2,N   4,H  16)          124.65  0.006127   -0.74    123.91   
    32. A(O   6,C   5,H  15)          121.96 -0.002639    0.35    122.31   
    33. A(O   6,C   5,N   7)          124.49  0.003578   -0.46    124.03   
    34. A(N   7,C   5,H  15)          113.55 -0.000939    0.11    113.66   
    35. A(C   5,N   7,C   8)          125.38  0.009344   -1.45    123.93   
    36. A(C   8,N   7,H  16)          117.21 -0.001113    0.40    117.62   
    37. A(C   5,N   7,H  16)          117.41 -0.008228    1.04    118.45   
    38. A(N   7,C   8,O   9)          124.06 -0.000167    0.08    124.14   
    39. A(O   9,C   8,H  17)          122.16  0.001545   -0.26    121.90   
    40. A(N   7,C   8,H  17)          113.78 -0.001378    0.18    113.96   
    41. A(C   8,O   9,H  13)          123.02 -0.001917    0.16    123.18   
    42. A(N   3,H  13,O   9)          169.36 -0.002944    0.46    169.83   
    43. A(N   4,H  16,N   7)          174.03  0.004043   -0.45    173.58   
    44. D(C   2,C   1,N   0,H  10)    179.42 -0.001752    2.38    181.80   
    45. D(H  11,C   1,N   0,H  10)     -0.26 -0.000036   -0.62     -0.88   
    46. D(N   4,C   2,C   1,H  11)     -0.34 -0.000007   -1.59     -1.93   
    47. D(N   3,C   2,C   1,N   0)     -0.07  0.002296   -5.41     -5.48   
    48. D(N   3,C   2,C   1,H  11)    179.63  0.000670   -2.62    177.02   
    49. D(N   4,C   2,C   1,N   0)    179.97  0.001619   -4.38    175.58   
    50. D(H  12,N   3,C   2,C   1)     18.20  0.001652   -0.34     17.86   
    51. D(H  13,N   3,C   2,N   4)    -25.40 -0.001065    0.35    -25.05   
    52. D(H  13,N   3,C   2,C   1)    154.63 -0.001749    1.39    156.02   
    53. D(H  12,N   3,C   2,N   4)   -161.83  0.002336   -1.38   -163.21   
    54. D(H  16,N   4,C   2,N   3)      3.30 -0.000781    1.32      4.62   
    55. D(H  16,N   4,C   2,C   1)   -176.74 -0.000078    0.26   -176.47   
    56. D(H  14,N   4,C   2,N   3)   -179.06 -0.000741    1.18   -177.88   
    57. D(H  14,N   4,C   2,C   1)      0.91 -0.000038    0.12      1.03   
    58. D(C   8,N   7,C   5,O   6)   -180.00  0.000182   -0.44   -180.44   
    59. D(H  16,N   7,C   5,H  15)    179.55  0.000243   -0.20    179.35   
    60. D(H  16,N   7,C   5,O   6)     -0.55  0.000512   -0.60     -1.14   
    61. D(C   8,N   7,C   5,H  15)      0.10 -0.000088   -0.04      0.06   
    62. D(H  17,C   8,N   7,H  16)   -179.58 -0.000389    0.50   -179.08   
    63. D(H  17,C   8,N   7,C   5)     -0.13 -0.000095    0.35      0.22   
    64. D(O   9,C   8,N   7,H  16)      0.51 -0.000587    0.70      1.21   
    65. D(O   9,C   8,N   7,C   5)    179.97 -0.000292    0.54    180.51   
    66. D(H  13,O   9,C   8,H  17)    166.18 -0.001713    1.09    167.26   
    67. D(H  13,O   9,C   8,N   7)    -13.93 -0.001502    0.87    -13.05   
    68. D(N   3,H  13,O   9,C   8)    -12.08  0.000550   -0.99    -13.06   
    69. D(O   9,H  13,N   3,H  12)   -175.99 -0.000071    0.51   -175.48   
    70. D(O   9,H  13,N   3,C   2)     47.51  0.001031   -0.65     46.86   
    71. D(N   4,H  16,N   7,C   8)    -30.73  0.000681   -0.11    -30.84   
    72. D(N   4,H  16,N   7,C   5)    149.77  0.000315    0.04    149.82   
    73. D(N   7,H  16,N   4,H  14)   -130.62  0.000832   -1.81   -132.43   
    74. D(N   7,H  16,N   4,C   2)     46.71  0.000868   -1.97     44.73   
    ----------------------------------------------------------------------------

         *************************************************************
         *                GEOMETRY OPTIMIZATION CYCLE   2            *
         *************************************************************
---------------------------------
CARTESIAN COORDINATES (ANGSTROEM)
---------------------------------
  N      3.822692   -1.694428   -0.042396
  C      3.171765   -0.598094   -0.100351
  C      1.674221   -0.627913   -0.135943
  N      1.093242   -1.851171   -0.219013
  N      0.979109    0.466942   -0.109446
  C     -2.586249    1.589725   -0.164121
  O     -2.111969    2.667286   -0.462257
  N     -1.840906    0.454930    0.055144
  C     -2.375578   -0.753867    0.398678
  O     -1.715346   -1.763376    0.603274
  H      4.832339   -1.501527    0.005580
  H      3.634354    0.404238   -0.084437
  H      1.705120   -2.622296    0.035393
  H      0.125789   -1.919088    0.132701
  H      1.585256    1.290537   -0.080403
  H     -3.684722    1.436530   -0.034120
  H     -0.783420    0.512567   -0.058614
  H     -3.485796   -0.749194    0.485432

----------------------------
CARTESIAN COORDINATES (A.U.)
----------------------------
  NO LB      ZA    FRAG     MASS         X           Y           Z
   0 N     7.0000    0    14.007    7.223840   -3.202004   -0.080117
   1 C     6.0000    0    12.011    5.993767   -1.130234   -0.189636
   2 C     6.0000    0    12.011    3.163819   -1.186584   -0.256895
   3 N     7.0000    0    14.007    2.065927   -3.498207   -0.413874
   4 N     7.0000    0    14.007    1.850249    0.882393   -0.206824
   5 C     6.0000    0    12.011   -4.887302    3.004144   -0.310144
   6 O     8.0000    0    15.999   -3.991043    5.040439   -0.873539
   7 N     7.0000    0    14.007   -3.478808    0.859693    0.104207
   8 C     6.0000    0    12.011   -4.489193   -1.424601    0.753392
   9 O     8.0000    0    15.999   -3.241535   -3.332297    1.140022
  10 H     1.0000    0     1.008    9.131797   -2.837476    0.010544
  11 H     1.0000    0     1.008    6.867933    0.763899   -0.159563
  12 H     1.0000    0     1.008    3.222209   -4.955421    0.066882
  13 H     1.0000    0     1.008    0.237707   -3.626551    0.250769
  14 H     1.0000    0     1.008    2.995700    2.438762   -0.151939
  15 H     1.0000    0     1.008   -6.963115    2.714648   -0.064477
  16 H     1.0000    0     1.008   -1.480450    0.968610   -0.110765
  17 H     1.0000    0     1.008   -6.587199   -1.415772    0.917334

--------------------------------
INTERNAL COORDINATES (ANGSTROEM)
--------------------------------
 N      0   0   0     0.000000000000     0.00000000     0.00000000
 C      1   0   0     1.276327706389     0.00000000     0.00000000
 C      2   1   0     1.498263355240   119.58653965     0.00000000
 N      3   2   1     1.356760294494   116.57724456   354.53560113
 N      3   2   1     1.297147234174   121.22068576   175.58513014
 C      5   3   2     3.738369874529   139.84296489   179.61405080
 O      6   5   3     1.214480889143    84.12391918   197.18708550
 N      6   5   3     1.375271507251    39.91174472    16.16724376
 C      8   6   5     1.365679192782   123.93680138   178.34031573
 O      9   8   6     1.223468264779   124.13384145   180.50936694
 H      1   2   3     1.029028705024   109.96761427   181.81106654
 H      2   1   3     1.104042835703   124.43695513   177.29890342
 H      4   3   2     1.016734817002   114.25408374    17.84706224
 H      4   3   2     1.031639386636   116.10709035   156.00116492
 H      5   3   2     1.023018080384   111.25880095     1.01162068
 H      6   5   3     1.116696853463   153.54068025    19.70899820
 H      8   6   5     1.065147301286   118.44956767   357.63231059
 H      9   8   6     1.113611403773   113.96610871     0.21693046

---------------------------
INTERNAL COORDINATES (A.U.)
---------------------------
 N      0   0   0     0.000000000000     0.00000000     0.00000000
 C      1   0   0     2.411909822211     0.00000000     0.00000000
 C      2   1   0     2.831307417893   119.58653965     0.00000000
 N      3   2   1     2.563905385971   116.57724456   354.53560113
 N      3   2   1     2.451253027962   121.22068576   175.58513014
 C      5   3   2     7.064495250162   139.84296489   179.61405080
 O      6   5   3     2.295036275361    84.12391918   197.18708550
 N      6   5   3     2.598886508489    39.91174472    16.16724376
 C      8   6   5     2.580759661152   123.93680138   178.34031573
 O      9   8   6     2.312019953977   124.13384145   180.50936694
 H      1   2   3     1.944582436438   109.96761427   181.81106654
 H      2   1   3     2.086338599597   124.43695513   177.29890342
 H      4   3   2     1.921350354956   114.25408374    17.84706224
 H      4   3   2     1.949515909709   116.10709035   156.00116492
 H      5   3   2     1.933224001975   111.25880095     1.01162068
 H      6   5   3     2.110251227657   153.54068025    19.70899820
 H      8   6   5     2.012836691716   118.44956767   357.63231059
 H      9   8   6     2.104420572742   113.96610871     0.21693046



           ************************************************************
           *        Program running with 6 parallel MPI-processes     *
           *              working on a common directory               *
           ************************************************************
 One Electron integrals                  ... done
 Pre-screening matrix                    ... done


           ************************************************************
           *        Program running with 6 parallel MPI-processes     *
           *              working on a common directory               *
           ************************************************************

Diagonalization of the overlap matrix:
Smallest eigenvalue                        ... 2.281e-03
Time for diagonalization                   ...    0.008 sec
Threshold for overlap eigenvalues          ... 1.000e-08
Number of eigenvalues below threshold      ... 0
Time for construction of square roots      ...    0.003 sec
Total time needed                          ...    0.012 sec

-------------------
DFT GRID GENERATION
-------------------

General Integration Accuracy     IntAcc      ...  4.340
Radial Grid Type                 RadialGrid  ... Gauss-Chebyshev
Angular Grid (max. acc.)         AngularGrid ... Lebedev-110
Angular grid pruning method      GridPruning ... 3 (G Style)
Weight generation scheme         WeightScheme... Becke
Basis function cutoff            BFCut       ...    1.0000e-11
Integration weight cutoff        WCut        ...    1.0000e-14
Grids for H and He will be reduced by one unit

# of grid points (after initial pruning)     ...  23216 (   0.0 sec)
# of grid points (after weights+screening)   ...  21726 (   0.0 sec)
nearest neighbour list constructed           ...    0.0 sec
Grid point re-assignment to atoms done       ...    0.0 sec
Grid point division into batches done        ...    0.0 sec
Reduced shell lists constructed in    0.1 sec

Total number of grid points                  ...    21726
Total number of batches                      ...      349
Average number of points per batch           ...       62
Average number of grid points per atom       ...     1207
Average number of shells per batch           ...    55.28 (65.81%)
Average number of basis functions per batch  ...   113.52 (63.06%)
Average number of large shells per batch     ...    41.57 (75.19%)
Average number of large basis fcns per batch ...    85.77 (75.55%)
Maximum spatial batch extension              ...   7.15, 11.15, 19.84 au
Average spatial batch extension              ...   0.35,  0.42,  0.61 au

Time for grid setup =    0.127 sec

--------------------
COSX GRID GENERATION
--------------------

General Integration Accuracy     IntAcc      ...  3.340
Radial Grid Type                 RadialGrid  ... Gauss-Chebyshev
Angular Grid (max. acc.)         AngularGrid ... Lebedev-50
Angular grid pruning method      GridPruning ... 3 (G Style)
Weight generation scheme         WeightScheme... Becke
Basis function cutoff            BFCut       ...    1.0000e-11
Integration weight cutoff        WCut        ...    1.0000e-14
Grids for H and He will be reduced by one unit

# of grid points (after initial pruning)     ...   8304 (   0.0 sec)
# of grid points (after weights+screening)   ...   7822 (   0.0 sec)
nearest neighbour list constructed           ...    0.0 sec
Grid point re-assignment to atoms done       ...    0.0 sec
Grid point division into batches done        ...    0.0 sec
Reduced shell lists constructed in    0.0 sec

Total number of grid points                  ...     7822
Total number of batches                      ...      131
Average number of points per batch           ...       59
Average number of grid points per atom       ...      435
Average number of shells per batch           ...    56.74 (67.55%)
Average number of basis functions per batch  ...   117.00 (65.00%)
Average number of large shells per batch     ...    42.35 (74.64%)
Average number of large basis fcns per batch ...    87.74 (74.99%)
Maximum spatial batch extension              ...   4.57,  9.45, 30.36 au
Average spatial batch extension              ...   0.40,  0.49,  1.18 au

Overlap Fitting                  UseSFitting ... on
Constructing numerical overlap ... done (      0.0 sec)
Inverting numerical overlap    ... done (      0.0 sec)
Obtaining analytic overlap     ... done (      0.0 sec)
Final contraction and storage  ... done (      0.0 sec)


General Integration Accuracy     IntAcc      ...  3.670
Radial Grid Type                 RadialGrid  ... Gauss-Chebyshev
Angular Grid (max. acc.)         AngularGrid ... Lebedev-50
Angular grid pruning method      GridPruning ... 3 (G Style)
Weight generation scheme         WeightScheme... Becke
Basis function cutoff            BFCut       ...    1.0000e-11
Integration weight cutoff        WCut        ...    1.0000e-14
Grids for H and He will be reduced by one unit

# of grid points (after initial pruning)     ...  10596 (   0.0 sec)
# of grid points (after weights+screening)   ...   9963 (   0.0 sec)
nearest neighbour list constructed           ...    0.0 sec
Grid point re-assignment to atoms done       ...    0.0 sec
Grid point division into batches done        ...    0.0 sec
Reduced shell lists constructed in    0.0 sec

Total number of grid points                  ...     9963
Total number of batches                      ...      164
Average number of points per batch           ...       60
Average number of grid points per atom       ...      554
Average number of shells per batch           ...    57.17 (68.06%)
Average number of basis functions per batch  ...   118.41 (65.79%)
Average number of large shells per batch     ...    42.79 (74.85%)
Average number of large basis fcns per batch ...    88.45 (74.69%)
Maximum spatial batch extension              ...   6.46, 10.00, 26.68 au
Average spatial batch extension              ...   0.40,  0.52,  1.11 au

Overlap Fitting                  UseSFitting ... on
Constructing numerical overlap ... done (      0.0 sec)
Inverting numerical overlap    ... done (      0.0 sec)
Obtaining analytic overlap     ... done (      0.0 sec)
Final contraction and storage  ... done (      0.0 sec)


General Integration Accuracy     IntAcc      ...  4.010
Radial Grid Type                 RadialGrid  ... Gauss-Chebyshev
Angular Grid (max. acc.)         AngularGrid ... Lebedev-110
Angular grid pruning method      GridPruning ... 3 (G Style)
Weight generation scheme         WeightScheme... Becke
Basis function cutoff            BFCut       ...    1.0000e-11
Integration weight cutoff        WCut        ...    1.0000e-14
Grids for H and He will be reduced by one unit

# of grid points (after initial pruning)     ...  19932 (   0.0 sec)
# of grid points (after weights+screening)   ...  18680 (   0.0 sec)
nearest neighbour list constructed           ...    0.0 sec
Grid point re-assignment to atoms done       ...    0.0 sec
Grid point division into batches done        ...    0.0 sec
Reduced shell lists constructed in    0.1 sec

Total number of grid points                  ...    18680
Total number of batches                      ...      302
Average number of points per batch           ...       61
Average number of grid points per atom       ...     1038
Average number of shells per batch           ...    55.69 (66.30%)
Average number of basis functions per batch  ...   114.54 (63.63%)
Average number of large shells per batch     ...    41.87 (75.17%)
Average number of large basis fcns per batch ...    86.48 (75.50%)
Maximum spatial batch extension              ...   7.20, 10.61, 18.89 au
Average spatial batch extension              ...   0.37,  0.44,  0.64 au

Overlap Fitting                  UseSFitting ... on
Constructing numerical overlap ... done (      0.0 sec)
Inverting numerical overlap    ... done (      0.0 sec)
Obtaining analytic overlap     ... done (      0.0 sec)
Final contraction and storage  ... done (      0.0 sec)

Time for X-Grid setup             =    0.349 sec
--------------
SCF ITERATIONS
--------------
ITER       Energy         Delta-E        Max-DP      RMS-DP      [F,P]     Damp
               ***  Starting incremental Fock matrix formation  ***
  0   -526.4474096733   0.000000000000 0.00970951  0.00021356  0.0379385 0.7000
  1   -526.4492602137  -0.001850540346 0.00960996  0.00019473  0.0303333 0.7000
                               ***Turning on DIIS***
  2   -526.4507182288  -0.001458015174 0.02617305  0.00050647  0.0230678 0.0000
  3   -526.4544363941  -0.003718165253 0.00361899  0.00006797  0.0038136 0.0000
                      *** Initiating the SOSCF procedure ***
                           *** Shutting down DIIS ***
                      *** Re-Reading the Fockian *** 
                      *** Removing any level shift *** 
ITER      Energy       Delta-E        Grad      Rot      Max-DP    RMS-DP
  4   -526.45450882  -0.0000724225  0.000866  0.000866  0.001530  0.000031
               *** Restarting incremental Fock matrix formation ***
  5   -526.45452474  -0.0000159259  0.000504  0.002009  0.001234  0.000029
  6   -526.45452924  -0.0000045023  0.000193  0.001158  0.000723  0.000020
  7   -526.45452912   0.0000001295  0.000268  0.000644  0.000438  0.000012
  8   -526.45453031  -0.0000011973  0.000057  0.000167  0.000219  0.000005
[...]
Angular grid pruning method      GridPruning ... 3 (G Style)
Weight generation scheme         WeightScheme... Becke
Basis function cutoff            BFCut       ...    1.0000e-11
Integration weight cutoff        WCut        ...    1.0000e-14
Grids for H and He will be reduced by one unit

# of grid points (after initial pruning)     ...  19932 (   0.0 sec)
# of grid points (after weights+screening)   ...  18681 (   0.0 sec)
nearest neighbour list constructed           ...    0.0 sec
Grid point re-assignment to atoms done       ...    0.0 sec
Grid point division into batches done        ...    0.0 sec
Reduced shell lists constructed in    0.1 sec

Total number of grid points                  ...    18681
Total number of batches                      ...      303
Average number of points per batch           ...       61
Average number of grid points per atom       ...     1038
Average number of shells per batch           ...    56.08 (66.76%)
Average number of basis functions per batch  ...   115.42 (64.12%)
Average number of large shells per batch     ...    42.37 (75.55%)
Average number of large basis fcns per batch ...    87.79 (76.06%)
Maximum spatial batch extension              ...   7.20,  8.38, 21.41 au
Average spatial batch extension              ...   0.35,  0.43,  0.70 au

Overlap Fitting                  UseSFitting ... on
Constructing numerical overlap ... done (      0.0 sec)
Inverting numerical overlap    ... done (      0.0 sec)
Obtaining analytic overlap     ... done (      0.0 sec)
Final contraction and storage  ... done (      0.0 sec)

Time for X-Grid setup             =    0.373 sec
--------------
SCF ITERATIONS
--------------
ITER       Energy         Delta-E        Max-DP      RMS-DP      [F,P]     Damp
               ***  Starting incremental Fock matrix formation  ***
                      *** Initiating the SOSCF procedure ***
                      *** Re-Reading the Fockian *** 
                      *** Removing any level shift *** 
ITER      Energy       Delta-E        Grad      Rot      Max-DP    RMS-DP
  0   -526.45523593 -526.4552359302  0.002253  0.002253  0.007083  0.000134
               *** Restarting incremental Fock matrix formation ***
  1   -526.45551368  -0.0002777523  0.001047  0.003080  0.003682  0.000066
  2   -526.45555137  -0.0000376847  0.000248  0.000967  0.001167  0.000029
  3   -526.45554789   0.0000034783  0.000603  0.000583  0.000848  0.000018
  4   -526.45555332  -0.0000054282  0.000051  0.000110  0.000128  0.000003
  5   -526.45555331   0.0000000090  0.000070  0.000088  0.000119  0.000002
  6   -526.45555337  -0.0000000589  0.000015  0.000028  0.000047  0.000001
  7   -526.45555337  -0.0000000031  0.000012  0.000017  0.000034  0.000001
  8   -526.45555338  -0.0000000096  0.000003  0.000006  0.000013  0.000000
  9   -526.45555337   0.0000000070  0.000003  0.000003  0.000005  0.000000
                  ***Gradient check signals convergence***
              ***Rediagonalizing the Fockian in SOSCF/NRSCF***

               *****************************************************
               *                     SUCCESS                       *
               *           SCF CONVERGED AFTER  10 CYCLES          *
               *****************************************************

Setting up the final grid:

General Integration Accuracy     IntAcc      ...  4.670
Radial Grid Type                 RadialGrid  ... Gauss-Chebyshev
Angular Grid (max. acc.)         AngularGrid ... Lebedev-302
Angular grid pruning method      GridPruning ... 3 (G Style)
Weight generation scheme         WeightScheme... Becke
Basis function cutoff            BFCut       ...    1.0000e-11
Integration weight cutoff        WCut        ...    1.0000e-14
Grids for H and He will be reduced by one unit

# of grid points (after initial pruning)     ...  89272 (   0.0 sec)
# of grid points (after weights+screening)   ...  82401 (   0.1 sec)
nearest neighbour list constructed           ...    0.0 sec
Grid point re-assignment to atoms done       ...    0.0 sec
Grid point division into batches done        ...    0.4 sec
Reduced shell lists constructed in    0.6 sec

Total number of grid points                  ...    82401
Total number of batches                      ...     1298
Average number of points per batch           ...       63
Average number of grid points per atom       ...     4578
Average number of shells per batch           ...    52.72 (62.76%)
Average number of basis functions per batch  ...   107.82 (59.90%)
Average number of large shells per batch     ...    39.38 (74.70%)
Average number of large basis fcns per batch ...    81.13 (75.25%)
Maximum spatial batch extension              ...   8.74, 10.13, 23.20 au
Average spatial batch extension              ...   0.24,  0.26,  0.34 au

Final grid set up in    0.7 sec
Final integration                            ... done (   0.3 sec)
Change in XC energy                          ...    -0.000323199
Integrated number of electrons               ...    75.999954917
Previous integrated no of electrons          ...    76.000518171
Old exchange energy                            =    -13.282523113 Eh
New exchange energy                            =    -13.282140611 Eh
Exchange energy change after final integration =      0.000382503 Eh
Total energy after final integration           =   -526.455494075 Eh
Final COS-X integration done in                =     2.335 sec

----------------
TOTAL SCF ENERGY
----------------

Total Energy       :         -526.45549408 Eh          -14325.58229 eV

Components:
Nuclear Repulsion  :          492.69562543 Eh           13406.92956 eV
Electronic Energy  :        -1019.15111950 Eh          -27732.51186 eV
One Electron Energy:        -1693.92419123 Eh          -46094.02062 eV
Two Electron Energy:          674.77307172 Eh           18361.50876 eV

Virial components:
Potential Energy   :        -1049.82183615 Eh          -28567.10449 eV
Kinetic Energy     :          523.36634208 Eh           14241.52219 eV
Virial Ratio       :            2.00590247


DFT components:
N(Alpha)           :       37.999977458325 electrons
N(Beta)            :       37.999977458325 electrons
N(Total)           :       75.999954916650 electrons
E(X)               :      -52.865058965622 Eh       
E(C)               :       -3.086722926345 Eh       
E(XC)              :      -55.951781891968 Eh       

---------------
SCF CONVERGENCE
---------------

  Last Energy change         ...   -6.7264e-09  Tolerance :   1.0000e-08
  Last MAX-Density change    ...    2.7758e-13  Tolerance :   1.0000e-07
  Last RMS-Density change    ...    1.6851e-15  Tolerance :   5.0000e-09
  Last Orbital Gradient      ...    8.5931e-07  Tolerance :   1.0000e-05
  Last Orbital Rotation      ...    2.5660e-06  Tolerance :   1.0000e-05

             **** THE GBW FILE WAS UPDATED (AT-v/e/frag_11_c00001.gbw) ****
             **** DENSITY FILE WAS UPDATED (AT-v/e/frag_11_c00001.scfp.tmp) ****
             **** ENERGY FILE WAS UPDATED (AT-v/e/frag_11_c00001.en.tmp) ****
----------------
ORBITAL ENERGIES
----------------

  NO   OCC          E(Eh)            E(eV) 
   0   2.0000     -19.136372      -520.7271 
   1   2.0000     -19.127103      -520.4749 
   2   2.0000     -14.362055      -390.8114 
   3   2.0000     -14.350748      -390.5037 
   4   2.0000     -14.333374      -390.0309 
   5   2.0000     -14.312400      -389.4602 
   6   2.0000     -10.305744      -280.4335 
   7   2.0000     -10.298663      -280.2409 
   8   2.0000     -10.270508      -279.4747 
   9   2.0000     -10.260168      -279.1934 
  10   2.0000      -1.059859       -28.8402 
  11   2.0000      -1.044720       -28.4283 
  12   2.0000      -0.964995       -26.2589 
  13   2.0000      -0.929743       -25.2996 
  14   2.0000      -0.916113       -24.9287 
  15   2.0000      -0.858099       -23.3501 
  16   2.0000      -0.675260       -18.3748 
  17   2.0000      -0.650713       -17.7068 
  18   2.0000      -0.628526       -17.1031 
  19   2.0000      -0.580452       -15.7949 
  20   2.0000      -0.546472       -14.8703 
  21   2.0000      -0.522495       -14.2178 
  22   2.0000      -0.509103       -13.8534 
  23   2.0000      -0.486448       -13.2369 
  24   2.0000      -0.461284       -12.5522 
  25   2.0000      -0.442228       -12.0336 
  26   2.0000      -0.441002       -12.0003 
  27   2.0000      -0.437183       -11.8964 
  28   2.0000      -0.422269       -11.4905 
  29   2.0000      -0.406220       -11.0538 
  30   2.0000      -0.383530       -10.4364 
  31   2.0000      -0.332278        -9.0417 
  32   2.0000      -0.312703        -8.5091 
  33   2.0000      -0.295654        -8.0452 
  34   2.0000      -0.281009        -7.6466 
  35   2.0000      -0.273695        -7.4476 
  36   2.0000      -0.257245        -7.0000 
  37   2.0000      -0.246507        -6.7078 
  38   0.0000      -0.060312        -1.6412 
  39   0.0000      -0.025132        -0.6839 
  40   0.0000       0.039051         1.0626 
  41   0.0000       0.045935         1.2500 
  42   0.0000       0.069354         1.8872 
  43   0.0000       0.077739         2.1154 
  44   0.0000       0.080282         2.1846 
  45   0.0000       0.104452         2.8423 
  46   0.0000       0.125712         3.4208 
  47   0.0000       0.137635         3.7453 
  48   0.0000       0.185403         5.0451 
  49   0.0000       0.206208         5.6112 
  50   0.0000       0.228001         6.2042 
  51   0.0000       0.245155         6.6710 
  52   0.0000       0.280490         7.6325 
  53   0.0000       0.313164         8.5216 
  54   0.0000       0.325228         8.8499 
  55   0.0000       0.352423         9.5899 
  56   0.0000       0.364285         9.9127 
  57   0.0000       0.388185        10.5631 
  58   0.0000       0.417200        11.3526 
  59   0.0000       0.450584        12.2610 
  60   0.0000       0.451969        12.2987 
  61   0.0000       0.461676        12.5628 
  62   0.0000       0.473182        12.8759 
  63   0.0000       0.492499        13.4016 
  64   0.0000       0.514976        14.0132 
  65   0.0000       0.517229        14.0745 
  66   0.0000       0.527213        14.3462 
  67   0.0000       0.552308        15.0291 
  68   0.0000       0.565888        15.3986 
  69   0.0000       0.568542        15.4708 
  70   0.0000       0.609890        16.5959 
  71   0.0000       0.623113        16.9558 
  72   0.0000       0.630031        17.1440 
  73   0.0000       0.640366        17.4253 
  74   0.0000       0.659105        17.9352 
  75   0.0000       0.667183        18.1550 
  76   0.0000       0.677771        18.4431 
  77   0.0000       0.709828        19.3154 
  78   0.0000       0.717734        19.5305 
  79   0.0000       0.741895        20.1880 
  80   0.0000       0.754262        20.5245 
  81   0.0000       0.794079        21.6080 
  82   0.0000       0.796093        21.6628 
  83   0.0000       0.843772        22.9602 
  84   0.0000       0.847207        23.0537 
  85   0.0000       0.856065        23.2947 
  86   0.0000       0.868411        23.6307 
  87   0.0000       0.886849        24.1324 
  88   0.0000       0.904700        24.6181 
  89   0.0000       0.923516        25.1301 
  90   0.0000       0.942551        25.6481 
  91   0.0000       0.962459        26.1898 
  92   0.0000       0.965674        26.2773 
  93   0.0000       0.986261        26.8375 
  94   0.0000       1.017728        27.6938 
  95   0.0000       1.034127        28.1400 
  96   0.0000       1.058905        28.8143 
  97   0.0000       1.076275        29.2869 
  98   0.0000       1.084265        29.5044 
  99   0.0000       1.095508        29.8103 
 100   0.0000       1.135989        30.9118 
 101   0.0000       1.145484        31.1702 
 102   0.0000       1.170261        31.8444 
 103   0.0000       1.199298        32.6346 
 104   0.0000       1.223249        33.2863 
 105   0.0000       1.261518        34.3276 
 106   0.0000       1.270227        34.5646 
 107   0.0000       1.276988        34.7486 
 108   0.0000       1.299106        35.3505 
 109   0.0000       1.300785        35.3962 
 110   0.0000       1.344094        36.5747 
 111   0.0000       1.347861        36.6771 
 112   0.0000       1.352855        36.8131 
 113   0.0000       1.450655        39.4743 
 114   0.0000       1.495033        40.6819 
 115   0.0000       1.507136        41.0113 
 116   0.0000       1.511986        41.1432 
 117   0.0000       1.521156        41.3928 
 118   0.0000       1.530957        41.6595 
 119   0.0000       1.561922        42.5020 
 120   0.0000       1.565993        42.6128 
 121   0.0000       1.581047        43.0225 
 122   0.0000       1.615991        43.9734 
 123   0.0000       1.628104        44.3030 
 124   0.0000       1.668851        45.4118 
 125   0.0000       1.680676        45.7335 
 126   0.0000       1.693110        46.0719 
 127   0.0000       1.705311        46.4039 
 128   0.0000       1.724277        46.9200 
 129   0.0000       1.728860        47.0447 
 130   0.0000       1.749167        47.5973 
 131   0.0000       1.787951        48.6526 
 132   0.0000       1.791209        48.7413 
 133   0.0000       1.846698        50.2512 
 134   0.0000       1.862171        50.6722 
 135   0.0000       1.872777        50.9609 
 136   0.0000       1.892860        51.5073 
 137   0.0000       1.929821        52.5131 
 138   0.0000       1.963852        53.4391 
 139   0.0000       2.052773        55.8588 
 140   0.0000       2.058396        56.0118 
 141   0.0000       2.072322        56.3908 
 142   0.0000       2.111098        57.4459 
 143   0.0000       2.121391        57.7260 
 144   0.0000       2.181173        59.3527 
 145   0.0000       2.191681        59.6387 
 146   0.0000       2.199600        59.8542 
 147   0.0000       2.228689        60.6457 
 148   0.0000       2.269096        61.7452 
 149   0.0000       2.305855        62.7455 
 150   0.0000       2.310137        62.8620 
 151   0.0000       2.317545        63.0636 
 152   0.0000       2.363404        64.3115 
 153   0.0000       2.373459        64.5851 
 154   0.0000       2.391706        65.0816 
 155   0.0000       2.442739        66.4703 
 156   0.0000       2.503315        68.1187 
 157   0.0000       2.524690        68.7003 
 158   0.0000       2.558284        69.6145 
 159   0.0000       2.601694        70.7957 
 160   0.0000       2.613971        71.1298 
 161   0.0000       2.650339        72.1194 
 162   0.0000       2.679627        72.9164 
 163   0.0000       2.689489        73.1847 
 164   0.0000       2.733365        74.3787 
 165   0.0000       2.747763        74.7704 
 166   0.0000       2.786876        75.8348 
 167   0.0000       2.800442        76.2039 
 168   0.0000       2.863600        77.9225 
 169   0.0000       2.912908        79.2643 
 170   0.0000       2.991239        81.3957 
 171   0.0000       3.047857        82.9364 
 172   0.0000       3.097229        84.2799 
 173   0.0000       3.138753        85.4098 
 174   0.0000       3.258644        88.6722 
 175   0.0000       3.316571        90.2485 
 176   0.0000       3.412579        92.8610 
 177   0.0000       3.448246        93.8316 
 178   0.0000       3.474204        94.5379 
 179   0.0000       3.503389        95.3321 
-------
TIMINGS
-------

Total SCF time: 0 days 0 hours 0 min 18 sec 

Total time                  ....      18.754 sec
Sum of individual times     ....      18.673 sec  ( 99.6%)

Fock matrix formation       ....      17.273 sec  ( 92.1%)
  Split-RI-J                ....       2.894 sec  ( 16.8% of F)
  Chain of spheres X        ....      13.155 sec  ( 76.2% of F)
  COS-X 1 center corr.      ....       0.000 sec  (  0.0% of F)
  XC integration            ....       1.179 sec  (  6.8% of F)
    Basis function eval.    ....       0.447 sec  ( 37.9% of XC)
    Density eval.           ....       0.198 sec  ( 16.8% of XC)
    XC-Functional eval.     ....       0.055 sec  (  4.6% of XC)
    XC-Potential eval.      ....       0.337 sec  ( 28.6% of XC)
Diagonalization             ....       0.010 sec  (  0.1%)
Density matrix formation    ....       0.033 sec  (  0.2%)
Population analysis         ....       0.000 sec  (  0.0%)
Initial guess               ....       0.010 sec  (  0.1%)
Orbital Transformation      ....       0.000 sec  (  0.0%)
Orbital Orthonormalization  ....       0.006 sec  (  0.0%)
DIIS solution               ....       0.002 sec  (  0.0%)
SOSCF solution              ....       0.137 sec  (  0.7%)
Grid generation             ....       1.209 sec  (  6.4%)


-------------------------------------------------------------------------------
                          DFT DISPERSION CORRECTION                            
                                                                               
                              DFTD3 V3.1  Rev 1                                
                          USING Becke-Johnson damping                          
-------------------------------------------------------------------------------
The B3LYP functional is recognized
Active option DFTDOPT                   ...         4   

molecular C6(AA) [au] = 3358.721181 


            DFT-D V3
 parameters
 s6 scaling factor         :     1.0000 
 a1 scaling factor         :     0.3981 
 s8 scaling factor         :     1.9889 
 a2 scaling factor         :     4.4211 
 ad hoc parameters k1-k3   :    16.0000     1.3333    -4.0000 

 Edisp/kcal,au: -16.101647748873  -0.025659606264 
 E6   /kcal   :  -7.912294611 
 E8   /kcal   :  -8.189353138 
 % E8         :  50.860342159 

-------------------------   ----------------
Dispersion correction           -0.025659606
-------------------------   ----------------


-------------------------   --------------------
FINAL SINGLE POINT ENERGY      -526.481153681639
-------------------------   --------------------

                                *** OPTIMIZATION RUN DONE ***

                            ***************************************
                            *     ORCA property calculations      *
                            ***************************************

                                    ---------------------
                                    Active property flags
                                    ---------------------
   (+) Dipole Moment


------------------------------------------------------------------------------
                       ORCA ELECTRIC PROPERTIES CALCULATION
------------------------------------------------------------------------------

Dipole Moment Calculation                       ... on
Quadrupole Moment Calculation                   ... off
Polarizability Calculation                      ... off
GBWName                                         ... AT-v/e/frag_11_c00001.gbw
Electron density file                           ... AT-v/e/frag_11_c00001.scfp.tmp
The origin for moment calculation is the CENTER OF MASS  = (-0.038127, -0.391846 -0.007590)

-------------
DIPOLE MOMENT
-------------
                                X             Y             Z
Electronic contribution:     -2.84698       1.17267      -0.09173
Nuclear contribution   :      3.86555      -1.40962       0.31970
                        -----------------------------------------
Total Dipole Moment    :      1.01857      -0.23695       0.22797
                        -----------------------------------------
Magnitude (a.u.)       :      1.07033
Magnitude (Debye)      :      2.72056


Timings for individual modules:

Sum of individual times         ...      164.756 sec (=   2.746 min)
GTO integral calculation        ...        5.123 sec (=   0.085 min)   3.1 %
SCF iterations                  ...      130.479 sec (=   2.175 min)  79.2 %
SCF Gradient evaluation         ...       28.565 sec (=   0.476 min)  17.3 %
Geometry relaxation             ...        0.589 sec (=   0.010 min)   0.4 %
                             ****ORCA TERMINATED NORMALLY****
TOTAL RUN TIME: 0 days 0 hours 2 minutes 46 seconds 486 msec
