
                                 *****************
                                 * O   R   C   A *
                                 *****************

           --- An Ab Initio, DFT and Semiempirical electronic structure package ---

                  #######################################################
                  #                        -***-                        #
                  #  Department of molecular theory and spectroscopy    #
                  #              Directorship: Frank Neese              #
                  # Max Planck Institute for Chemical Energy Conversion #
                  #                  D-45470 Muelheim/Ruhr              #
                  #                       Germany                       #
                  #                                                     #
                  #                  All rights reserved                #
                  #                        -***-                        #
                  #######################################################


                         Program Version 4.0.1.2 - RELEASE -


 With contributions from (in alphabetic order):
   Daniel Aravena         : Magnetic Properties
   Michael Atanasov       : Ab Initio Ligand Field Theory
   Ute Becker             : Parallelization
   Martin Brehm           : Molecular dynamics
   Dmytro Bykov           : SCF Hessian
   Vijay G. Chilkuri      : MRCI spin determinant printing
   Dipayan Datta          : RHF DLPNO-CCSD density
   Achintya Kumar Dutta   : EOM-CC, STEOM-CC
   Dmitry Ganyushin       : Spin-Orbit,Spin-Spin,Magnetic field MRCI
   Yang Guo               : DLPNO-NEVPT2, CIM, IAO-localization
   Andreas Hansen         : Spin unrestricted coupled pair/coupled cluster methods
   Lee Huntington         : MR-EOM, pCC
   Robert Izsak           : Overlap fitted RIJCOSX, COSX-SCS-MP3, EOM
   Christian Kollmar      : KDIIS, OOCD, Brueckner-CCSD(T), CCSD density
   Simone Kossmann        : Meta GGA functionals, TD-DFT gradient, OOMP2, MP2 Hessian
   Martin Krupicka        : AUTO-CI
   Dagmar Lenk            : GEPOL surface
   Dimitrios Liakos       : Extrapolation schemes; parallel MDCI
   Dimitrios Manganas     : ROCIS; embedding schemes
   Dimitrios Pantazis     : SARC Basis sets
   Taras Petrenko         : DFT Hessian,TD-DFT gradient, ASA, ECA, R-Raman, ABS, FL, XAS/XES, NRVS
   Peter Pinski           : DLPNO-MP2
   Christoph Reimann      : Effective Core Potentials
   Marius Retegan         : Local ZFS, SOC
   Christoph Riplinger    : Optimizer, TS searches, QM/MM, DLPNO-CCSD(T), (RO)-DLPNO pert. Triples
   Tobias Risthaus        : Range-separated hybrids, TD-DFT gradient, RPA, STAB
   Michael Roemelt        : Restricted open shell CIS
   Masaaki Saitow         : Open-shell DLPNO
   Barbara Sandhoefer     : DKH picture change effects
   Kantharuban Sivalingam : CASSCF convergence, NEVPT2, FIC-MRCI
   Georgi Stoychev        : AutoAux
   Boris Wezisla          : Elementary symmetry handling
   Frank Wennmohs         : Technical directorship


 We gratefully acknowledge several colleagues who have allowed us to
 interface, adapt or use parts of their codes:
   Stefan Grimme, W. Hujo, H. Kruse,             : VdW corrections, initial TS optimization,
                  C. Bannwarth                     DFT functionals, gCP, sTDA/sTD-DF
   Ed Valeev                                     : LibInt (2-el integral package), F12 methods
   Garnet Chan, S. Sharma, J. Yang, R. Olivares  : DMRG
   Ulf Ekstrom                                   : XCFun DFT Library
   Mihaly Kallay                                 : mrcc  (arbitrary order and MRCC methods)
   Andreas Klamt, Michael Diedenhofen            : otool_cosmo (COSMO solvation model)
   Jiri Pittner, Ondrej Demel                    : Mk-CCSD
   Frank Weinhold                                : gennbo (NPA and NBO analysis)
   Christopher J. Cramer and Donald G. Truhlar   : smd solvation model


 Your calculation uses the libint2 library for the computation of 2-el integrals
 For citations please refer to: http://libint.valeyev.net

 This ORCA versions uses:
   CBLAS   interface :  Fast vector & matrix operations
   LAPACKE interface :  Fast linear algebra routines
   SCALAPACK package :  Parallel linear algebra routines


Your calculation utilizes the atom-pairwise dispersion correction
with the Becke-Johnson damping scheme (D3BJ)
Cite in your paper:
S.Grimme, S.Ehrlich, L.Goerigk, J Comput Chem, (2011), 32, 1456–1465 
S.Grimme, J.Antony, S.Ehrlich and H.Krieg, J.Chem.Phys., 132, (2010), 154104 
   

Your calculation utilizes the basis: cc-pVDZ 
       H, B-Ne : Obtained from the ccRepo (grant-hill.group.shef.ac.uk/ccrepo) Feb. 2017
                 T. H. Dunning, Jr., J. Chem. Phys. 90, 1007 (1989)
            He : Obtained from the ccRepo (grant-hill.group.shef.ac.uk/ccrepo) Feb. 2017
                 D. E. Woon, T. H. Dunning, Jr., J. Chem. Phys. 100, 2975 (1994)
  Li-Be, Na-Mg : Obtained from the ccRepo (grant-hill.group.shef.ac.uk/ccrepo) Feb. 2017
                 B. P. Prascher, D. E. Woon, K. A. Peterson, T. H. Dunning, Jr., A. K. Wilson, Theor. Chem. Acc. 128, 69 (2011)
         Al-Ar : Obtained from the ccRepo (grant-hill.group.shef.ac.uk/ccrepo) Feb. 2017
                 D. E. Woon, T. H. Dunning, Jr., J. Chem. Phys. 98, 1358 (1993)
            Ca : Obtained from the Peterson Research Group Website (tyr0.chem.wsu.edu/~kipeters) Feb. 2017
                 J. Koput, K. A. Peterson, J. Phys. Chem. 106, 9595 (2002)
         Sc-Zn : Obtained from the ccRepo (grant-hill.group.shef.ac.uk/ccrepo) Feb. 2017
                 N. B. Balabanov, K. A. Peterson, J. Chem. Phys. 123, 064107 (2005)
                 N. B. Balabanov, K. A. Peterson, J. Chem. Phys. 125, 074110 (2006)
         Ga-Kr : Obtained from the ccRepo (grant-hill.group.shef.ac.uk/ccrepo) Feb. 2017
                 A. K. Wilson, D. E. Woon, K. A. Peterson, T. H. Dunning, Jr., J. Chem. Phys. 110, 7667 (1999)

Your calculation utilizes the auxiliary basis: def2/J
   F. Weigend, Phys. Chem. Chem. Phys. 8, 1057 (2006).

================================================================================
                                        WARNINGS
                       Please study these warnings very carefully!
================================================================================

Warning: TCutStore was < 0. Adjusted to Thresh (uncritical)

WARNING: Geometry Optimization
  ===> : Switching off AutoStart
         For restart on a previous wavefunction, please use MOREAD

INFO   : the flag for use of LIBINT has been found!

================================================================================
                                       INPUT FILE
================================================================================
NAME = g8raf/frag_26_c00001.com
|  1> %pal nprocs 6 end
|  2> %maxcore 1000
|  3> ! b3lyp TIGHTSCF nopop D3BJ
|  4> ! cc-pvdz def2/J RIJCOSX
|  5> ! Opt
|  6> 
|  7> %geom
|  8> maxiter 60
|  9> TolE 1e-4
| 10> TolRMSG 2e-3
| 11> TolMaxG 3e-3
| 12> TolRMSD 2e-2
| 13> TolMaxD 3e-2
| 14> end
| 15> 
| 16> *xyz 0 1
| 17> C 5.1642 -0.9335 0.0086
| 18> N 3.9457 -1.355 0.0026
| 19> C 2.9763 -0.384 -0.0079
| 20> C 1.6726 -0.6938 -0.0145
| 21> N 1.1467 -1.9659 -0.0135
| 22> H 5.4561 0.1315 0.0053
| 23> H 5.9876 -1.6656 0.0166
| 24> H 3.2603 0.6667 -0.0081
| 25> H 0.9163 0.0869 -0.0072
| 26> H 1.8971 -2.6424 0.1504
| 27> H 0.39 -2.0793 0.6549
| 28> *
| 29> 
| 30> 
| 31>                          ****END OF INPUT****
================================================================================

                       *****************************
                       * Geometry Optimization Run *
                       *****************************

Geometry optimization settings:
Update method            Update   .... BFGS
Choice of coordinates    CoordSys .... Redundant Internals
Initial Hessian          InHess   .... Almoef's Model

Convergence Tolerances:
Energy Change            TolE     ....  1.0000e-04 Eh
Max. Gradient            TolMAXG  ....  3.0000e-03 Eh/bohr
RMS Gradient             TolRMSG  ....  2.0000e-03 Eh/bohr
Max. Displacement        TolMAXD  ....  3.0000e-02 bohr
RMS Displacement         TolRMSD  ....  2.0000e-02 bohr

------------------------------------------------------------------------------
                        ORCA OPTIMIZATION COORDINATE SETUP
------------------------------------------------------------------------------

The optimization will be done in new redundant internal coordinates
Making redundant internal coordinates   ...  (new redundants) done
Evaluating the initial hessian          ...  (Almloef) done
Evaluating the coordinates              ...  done
Calculating the B-matrix                .... done
Calculating the G-matrix                .... done
Diagonalizing the G-matrix              .... done
The first mode is                       ....    8
The number of degrees of freedom        ....   27

    -----------------------------------------------------------------
                    Redundant Internal Coordinates


    -----------------------------------------------------------------
         Definition                    Initial Value    Approx d2E/dq
    -----------------------------------------------------------------
      1. B(N   1,C   0)                  1.2894         0.809926   
      2. B(C   2,N   1)                  1.3721         0.597609   
      3. B(C   3,C   2)                  1.3400         0.750721   
      4. B(N   4,C   3)                  1.3765         0.588004   
      5. B(H   5,C   0)                  1.1043         0.341692   
      6. B(H   6,C   0)                  1.1018         0.344790   
      7. B(H   7,C   2)                  1.0884         0.362216   
      8. B(H   8,C   3)                  1.0870         0.364111   
      9. B(H   9,N   4)                  1.0235         0.411725   
     10. B(H  10,N   4)                  1.0160         0.423308   
     11. A(N   1,C   0,H   6)          119.2788         0.364336   
     12. A(H   5,C   0,H   6)          116.3139         0.286505   
     13. A(N   1,C   0,H   5)          124.4073         0.363774   
     14. A(C   0,N   1,C   2)          115.8725         0.446583   
     15. A(N   1,C   2,H   7)          119.9210         0.348912   
     16. A(N   1,C   2,C   3)          121.5865         0.443408   
     17. A(C   3,C   2,H   7)          118.4923         0.364953   
     18. A(C   2,C   3,N   4)          125.8273         0.442111   
     19. A(N   4,C   3,H   8)          113.4479         0.348266   
     20. A(C   2,C   3,H   8)          120.7198         0.365280   
     21. A(H   9,N   4,H  10)          111.5262         0.299810   
     22. A(C   3,N   4,H  10)          112.8412         0.354133   
     23. A(C   3,N   4,H   9)          109.3189         0.352473   
     24. D(C   2,N   1,C   0,H   5)     -0.0322         0.050708   
     25. D(C   2,N   1,C   0,H   6)   -179.9695         0.050708   
     26. D(C   3,C   2,N   1,C   0)   -179.9780         0.026070   
     27. D(H   7,C   2,N   1,C   0)     -0.1565         0.026070   
     28. D(N   4,C   3,C   2,H   7)   -179.9101         0.040200   
     29. D(H   8,C   3,C   2,N   1)    179.0435         0.040200   
     30. D(N   4,C   3,C   2,N   1)     -0.0861         0.040200   
     31. D(H   8,C   3,C   2,H   7)     -0.7805         0.040200   
     32. D(H  10,N   4,C   3,H   8)    -45.0878         0.027781   
     33. D(H  10,N   4,C   3,C   2)    134.0966         0.027781   
     34. D(H   9,N   4,C   3,H   8)   -169.8077         0.027781   
     35. D(H   9,N   4,C   3,C   2)      9.3767         0.027781   
    -----------------------------------------------------------------

Number of atoms                         .... 11
Number of degrees of freedom            .... 35

         *************************************************************
         *                GEOMETRY OPTIMIZATION CYCLE   1            *
         *************************************************************
---------------------------------
CARTESIAN COORDINATES (ANGSTROEM)
---------------------------------
  C      5.164200   -0.933500    0.008600
  N      3.945700   -1.355000    0.002600
  C      2.976300   -0.384000   -0.007900
  C      1.672600   -0.693800   -0.014500
  N      1.146700   -1.965900   -0.013500
  H      5.456100    0.131500    0.005300
  H      5.987600   -1.665600    0.016600
  H      3.260300    0.666700   -0.008100
  H      0.916300    0.086900   -0.007200
  H      1.897100   -2.642400    0.150400
  H      0.390000   -2.079300    0.654900

----------------------------
CARTESIAN COORDINATES (A.U.)
----------------------------
  NO LB      ZA    FRAG     MASS         X           Y           Z
   0 C     6.0000    0    12.011    9.758924   -1.764059    0.016252
   1 N     7.0000    0    14.007    7.456292   -2.560579    0.004913
   2 C     6.0000    0    12.011    5.624392   -0.725655   -0.014929
   3 C     6.0000    0    12.011    3.160756   -1.311092   -0.027401
   4 N     7.0000    0    14.007    2.166949   -3.715013   -0.025511
   5 H     1.0000    0     1.008   10.310535    0.248499    0.010016
   6 H     1.0000    0     1.008   11.314924   -3.147528    0.031369
   7 H     1.0000    0     1.008    6.161074    1.259880   -0.015307
   8 H     1.0000    0     1.008    1.731556    0.164217   -0.013606
   9 H     1.0000    0     1.008    3.584999   -4.993412    0.284215
  10 H     1.0000    0     1.008    0.736993   -3.929308    1.237582

--------------------------------
INTERNAL COORDINATES (ANGSTROEM)
--------------------------------
 C      0   0   0     0.000000000000     0.00000000     0.00000000
 N      1   0   0     1.289356622506     0.00000000     0.00000000
 C      2   1   0     1.372110640583   115.87253012     0.00000000
 C      3   2   1     1.340019884181   121.58648920   180.02200373
 N      4   3   2     1.376521056868   125.82731150   359.91388001
 H      1   2   3     1.104283251707   124.40728656   359.96784517
 H      1   2   3     1.101826651520   119.27876542   180.03054779
 H      3   2   1     1.088405498884   119.92099058   359.84349207
 H      4   3   2     1.086984576708   120.71977319   179.04350020
 H      5   4   3     1.023530957031   109.31889631     9.37668937
 H      5   4   3     1.015978843284   112.84116869   134.09657422

---------------------------
INTERNAL COORDINATES (A.U.)
---------------------------
 C      0   0   0     0.000000000000     0.00000000     0.00000000
 N      1   0   0     2.436530905494     0.00000000     0.00000000
 C      2   1   0     2.592913336140   115.87253012     0.00000000
 C      3   2   1     2.532270595111   121.58648920   180.02200373
 N      4   3   2     2.601247815056   125.82731150   359.91388001
 H      1   2   3     2.086792920002   124.40728656   359.96784517
 H      1   2   3     2.082150618428   119.27876542   180.03054779
 H      3   2   1     2.056788315544   119.92099058   359.84349207
 H      4   3   2     2.054103161774   120.71977319   179.04350020
 H      5   4   3     1.934193198378   109.31889631     9.37668937
 H      5   4   3     1.919921771664   112.84116869   134.09657422

---------------------
BASIS SET INFORMATION
---------------------
There are 3 groups of distinct atoms

 Group   1 Type C   : 17s4p1d contracted to 3s2p1d pattern {881/31/1}
 Group   2 Type N   : 17s4p1d contracted to 3s2p1d pattern {881/31/1}
 Group   3 Type H   : 4s1p contracted to 2s1p pattern {31/1}

Atom   0C    basis set group =>   1
Atom   1N    basis set group =>   2
Atom   2C    basis set group =>   1
Atom   3C    basis set group =>   1
Atom   4N    basis set group =>   2
Atom   5H    basis set group =>   3
Atom   6H    basis set group =>   3
Atom   7H    basis set group =>   3
Atom   8H    basis set group =>   3
Atom   9H    basis set group =>   3
Atom  10H    basis set group =>   3
-------------------------------
AUXILIARY BASIS SET INFORMATION
-------------------------------
There are 3 groups of distinct atoms

 Group   1 Type C   : 12s5p4d2f1g contracted to 6s4p3d1f1g pattern {711111/2111/211/2/1}
 Group   2 Type N   : 12s5p4d2f1g contracted to 6s4p3d1f1g pattern {711111/2111/211/2/1}
 Group   3 Type H   : 5s2p1d contracted to 3s1p1d pattern {311/2/1}

Atom   0C    basis set group =>   1
Atom   1N    basis set group =>   2
Atom   2C    basis set group =>   1
Atom   3C    basis set group =>   1
Atom   4N    basis set group =>   2
Atom   5H    basis set group =>   3
Atom   6H    basis set group =>   3
Atom   7H    basis set group =>   3
Atom   8H    basis set group =>   3
Atom   9H    basis set group =>   3
Atom  10H    basis set group =>   3


           ************************************************************
           *        Program running with 6 parallel MPI-processes     *
           *              working on a common directory               *
           ************************************************************
------------------------------------------------------------------------------
                           ORCA GTO INTEGRAL CALCULATION
                           -- RI-GTO INTEGRALS CHOSEN --
------------------------------------------------------------------------------

                         BASIS SET STATISTICS AND STARTUP INFO

Gaussian basis set:
 # of primitive gaussian shells          ...  140
 # of primitive gaussian functions       ...  212
 # of contracted shells                  ...   48
 # of contracted basis functions         ...  100
 Highest angular momentum                ...    2
 Maximum contraction depth               ...    8
Auxiliary gaussian basis set:
 # of primitive gaussian shells          ...  168
 # of primitive gaussian functions       ...  446
 # of contracted shells                  ...  105
 # of contracted aux-basis functions     ...  311
 Highest angular momentum                ...    4
 Maximum contraction depth               ...    7
Ratio of auxiliary to basis functions    ...  3.11
Integral package used                  ... LIBINT
 One Electron integrals                  ... done
 Ordering auxiliary basis shells         ... done
 Integral threshhold             Thresh  ...  2.500e-11
 Primitive cut-off               TCut    ...  2.500e-12
 Pre-screening matrix                    ... done
 Shell pair data                         ... 
 Ordering of the shell pairs             ... done (   0.000 sec) 1162 of 1176 pairs
 Determination of significant pairs      ... done (   0.000 sec)
 Creation of shell pair data             ... done (   0.001 sec)
 Storage of shell pair data              ... done (   0.001 sec)
 Shell pair data done in (   0.002 sec)
 Computing two index integrals           ... done
 Cholesky decomposition of the V-matrix  ... done


Timings:
 Total evaluation time                   ...   0.244 sec (  0.004 min)
 One electron matrix time                ...   0.016 sec (  0.000 min) =  6.6%
 Schwartz matrix evaluation time         ...   0.176 sec (  0.003 min) = 72.0%
 Two index repulsion integral time       ...   0.026 sec (  0.000 min) = 10.5%
 Cholesky decomposition of V             ...   0.003 sec (  0.000 min) =  1.1%
 Three index repulsion integral time     ...   0.000 sec (  0.000 min) =  0.0%



           ************************************************************
           *        Program running with 6 parallel MPI-processes     *
           *              working on a common directory               *
           ************************************************************
-------------------------------------------------------------------------------
                                 ORCA SCF
-------------------------------------------------------------------------------

------------
SCF SETTINGS
------------
Hamiltonian:
 Density Functional     Method          .... DFT(GTOs)
 Exchange Functional    Exchange        .... B88
   X-Alpha parameter    XAlpha          ....  0.666667
   Becke's b parameter  XBeta           ....  0.004200
 Correlation Functional Correlation     .... LYP
 LDA part of GGA corr.  LDAOpt          .... VWN-5
 Gradients option       PostSCFGGA      .... off
 Hybrid DFT is turned on
   Fraction HF Exchange ScalHFX         ....  0.200000
   Scaling of DF-GGA-X  ScalDFX         ....  0.720000
   Scaling of DF-GGA-C  ScalDFC         ....  0.810000
   Scaling of DF-LDA-C  ScalLDAC        ....  1.000000
   Perturbative correction              ....  0.000000
   NL short-range parameter             ....  4.800000
 RI-approximation to the Coulomb term is turned on
   Number of auxiliary basis functions  .... 311
   RIJ-COSX (HFX calculated with COS-X)).... on


General Settings:
 Integral files         IntName         .... g8raf/frag_26_c00001
 Hartree-Fock type      HFTyp           .... RHF
 Total Charge           Charge          ....    0
 Multiplicity           Mult            ....    1
 Number of Electrons    NEL             ....   38
 Basis Dimension        Dim             ....  100
 Nuclear Repulsion      ENuc            ....    161.1608575305 Eh

Convergence Acceleration:
 DIIS                   CNVDIIS         .... on
   Start iteration      DIISMaxIt       ....    12
   Startup error        DIISStart       ....  0.200000
   # of expansion vecs  DIISMaxEq       ....     5
   Bias factor          DIISBfac        ....   1.050
   Max. coefficient     DIISMaxC        ....  10.000
 Newton-Raphson         CNVNR           .... off
 SOSCF                  CNVSOSCF        .... on
   Start iteration      SOSCFMaxIt      ....   150
   Startup grad/error   SOSCFStart      ....  0.003300
 Level Shifting         CNVShift        .... on
   Level shift para.    LevelShift      ....    0.2500
   Turn off err/grad.   ShiftErr        ....    0.0010
 Zerner damping         CNVZerner       .... off
 Static damping         CNVDamp         .... on
   Fraction old density DampFac         ....    0.7000
   Max. Damping (<1)    DampMax         ....    0.9800
   Min. Damping (>=0)   DampMin         ....    0.0000
   Turn off err/grad.   DampErr         ....    0.1000
 Fernandez-Rico         CNVRico         .... off

SCF Procedure:
 Maximum # iterations   MaxIter         ....   125
 SCF integral mode      SCFMode         .... Direct
   Integral package                     .... LIBINT
 Reset frequeny         DirectResetFreq ....    20
 Integral Threshold     Thresh          ....  2.500e-11 Eh
 Primitive CutOff       TCut            ....  2.500e-12 Eh

Convergence Tolerance:
 Convergence Check Mode ConvCheckMode   .... Total+1el-Energy
 Convergence forced     ConvForced      .... 0
 Energy Change          TolE            ....  1.000e-08 Eh
 1-El. energy change                    ....  1.000e-05 Eh
 Orbital Gradient       TolG            ....  1.000e-05
 Orbital Rotation angle TolX            ....  1.000e-05
 DIIS Error             TolErr          ....  5.000e-07


Diagonalization of the overlap matrix:
Smallest eigenvalue                        ... 1.581e-03
Time for diagonalization                   ...    0.003 sec
Threshold for overlap eigenvalues          ... 1.000e-08
Number of eigenvalues below threshold      ... 0
Time for construction of square roots      ...    0.001 sec
Total time needed                          ...    0.004 sec

-------------------
DFT GRID GENERATION
-------------------

General Integration Accuracy     IntAcc      ...  4.340
Radial Grid Type                 RadialGrid  ... Gauss-Chebyshev
Angular Grid (max. acc.)         AngularGrid ... Lebedev-110
Angular grid pruning method      GridPruning ... 3 (G Style)
Weight generation scheme         WeightScheme... Becke
Basis function cutoff            BFCut       ...    1.0000e-11
Integration weight cutoff        WCut        ...    1.0000e-14
Grids for H and He will be reduced by one unit

# of grid points (after initial pruning)     ...  13136 (   0.0 sec)
# of grid points (after weights+screening)   ...  12506 (   0.0 sec)
nearest neighbour list constructed           ...    0.0 sec
Grid point re-assignment to atoms done       ...    0.0 sec
Grid point division into batches done        ...    0.0 sec
Reduced shell lists constructed in    0.0 sec

Total number of grid points                  ...    12506
Total number of batches                      ...      201
Average number of points per batch           ...       62
Average number of grid points per atom       ...     1137
Average number of shells per batch           ...    43.23 (90.06%)
Average number of basis functions per batch  ...    88.77 (88.77%)
Average number of large shells per batch     ...    36.97 (85.53%)
Average number of large basis fcns per batch ...    76.57 (86.26%)
Maximum spatial batch extension              ...   3.93,  6.07, 20.10 au
Average spatial batch extension              ...   0.32,  0.35,  0.63 au

Time for grid setup =    0.048 sec

------------------------------
INITIAL GUESS: MODEL POTENTIAL
------------------------------
Loading Hartree-Fock densities                     ... done
Calculating cut-offs                               ... done
Setting up the integral package                    ... done
Initializing the effective Hamiltonian             ... done
Starting the Coulomb interaction                   ... done (   0.0 sec)
Reading the grid                                   ... done
Mapping shells                                     ... done
Starting the XC term evaluation                    ... done (   0.0 sec)
  promolecular density results
     # of electrons  =     37.998538479
     EX              =    -30.322158407
     EC              =     -1.257004609
     EX+EC           =    -31.579163016
Transforming the Hamiltonian                       ... done (   0.0 sec)
Diagonalizing the Hamiltonian                      ... done (   0.0 sec)
Back transforming the eigenvectors                 ... done (   0.0 sec)
Now organizing SCF variables                       ... done
                      ------------------
                      INITIAL GUESS DONE (   0.2 sec)
                      ------------------
--------------------
COSX GRID GENERATION
--------------------

General Integration Accuracy     IntAcc      ...  3.340
Radial Grid Type                 RadialGrid  ... Gauss-Chebyshev
Angular Grid (max. acc.)         AngularGrid ... Lebedev-50
Angular grid pruning method      GridPruning ... 3 (G Style)
Weight generation scheme         WeightScheme... Becke
Basis function cutoff            BFCut       ...    1.0000e-11
Integration weight cutoff        WCut        ...    1.0000e-14
Grids for H and He will be reduced by one unit

# of grid points (after initial pruning)     ...   4792 (   0.0 sec)
# of grid points (after weights+screening)   ...   4567 (   0.0 sec)
nearest neighbour list constructed           ...    0.0 sec
Grid point re-assignment to atoms done       ...    0.0 sec
Grid point division into batches done        ...    0.0 sec
Reduced shell lists constructed in    0.0 sec

Total number of grid points                  ...     4567
Total number of batches                      ...       77
Average number of points per batch           ...       59
Average number of grid points per atom       ...      415
Average number of shells per batch           ...    41.36 (86.16%)
Average number of basis functions per batch  ...    85.07 (85.07%)
Average number of large shells per batch     ...    36.64 (88.60%)
Average number of large basis fcns per batch ...    75.64 (88.92%)
Maximum spatial batch extension              ...   3.85,  4.76, 17.09 au
Average spatial batch extension              ...   0.40,  0.46,  1.08 au

Overlap Fitting                  UseSFitting ... on
Constructing numerical overlap ... done (      0.0 sec)
Inverting numerical overlap    ... done (      0.0 sec)
Obtaining analytic overlap     ... done (      0.0 sec)
Final contraction and storage  ... done (      0.0 sec)


General Integration Accuracy     IntAcc      ...  3.670
Radial Grid Type                 RadialGrid  ... Gauss-Chebyshev
Angular Grid (max. acc.)         AngularGrid ... Lebedev-50
Angular grid pruning method      GridPruning ... 3 (G Style)
Weight generation scheme         WeightScheme... Becke
Basis function cutoff            BFCut       ...    1.0000e-11
Integration weight cutoff        WCut        ...    1.0000e-14
Grids for H and He will be reduced by one unit

# of grid points (after initial pruning)     ...   6146 (   0.0 sec)
# of grid points (after weights+screening)   ...   5852 (   0.0 sec)
nearest neighbour list constructed           ...    0.0 sec
Grid point re-assignment to atoms done       ...    0.0 sec
Grid point division into batches done        ...    0.0 sec
Reduced shell lists constructed in    0.0 sec

Total number of grid points                  ...     5852
Total number of batches                      ...       96
Average number of points per batch           ...       60
Average number of grid points per atom       ...      532
Average number of shells per batch           ...    41.76 (87.01%)
Average number of basis functions per batch  ...    85.88 (85.88%)
Average number of large shells per batch     ...    36.53 (87.46%)
Average number of large basis fcns per batch ...    75.24 (87.60%)
Maximum spatial batch extension              ...   3.64,  4.64, 18.49 au
Average spatial batch extension              ...   0.37,  0.41,  0.85 au

Overlap Fitting                  UseSFitting ... on
Constructing numerical overlap ... done (      0.0 sec)
Inverting numerical overlap    ... done (      0.0 sec)
Obtaining analytic overlap     ... done (      0.0 sec)
Final contraction and storage  ... done (      0.0 sec)


General Integration Accuracy     IntAcc      ...  4.010
Radial Grid Type                 RadialGrid  ... Gauss-Chebyshev
Angular Grid (max. acc.)         AngularGrid ... Lebedev-110
Angular grid pruning method      GridPruning ... 3 (G Style)
Weight generation scheme         WeightScheme... Becke
Basis function cutoff            BFCut       ...    1.0000e-11
Integration weight cutoff        WCut        ...    1.0000e-14
Grids for H and He will be reduced by one unit

# of grid points (after initial pruning)     ...  11348 (   0.0 sec)
# of grid points (after weights+screening)   ...  10826 (   0.0 sec)
nearest neighbour list constructed           ...    0.0 sec
Grid point re-assignment to atoms done       ...    0.0 sec
Grid point division into batches done        ...    0.0 sec
Reduced shell lists constructed in    0.0 sec

Total number of grid points                  ...    10826
Total number of batches                      ...      176
Average number of points per batch           ...       61
Average number of grid points per atom       ...      984
Average number of shells per batch           ...    42.81 (89.18%)
Average number of basis functions per batch  ...    87.77 (87.77%)
Average number of large shells per batch     ...    36.61 (85.53%)
Average number of large basis fcns per batch ...    75.19 (85.67%)
Maximum spatial batch extension              ...   3.91,  6.11, 19.04 au
Average spatial batch extension              ...   0.31,  0.36,  0.67 au

Overlap Fitting                  UseSFitting ... on
Constructing numerical overlap ... done (      0.0 sec)
Inverting numerical overlap    ... done (      0.0 sec)
Obtaining analytic overlap     ... done (      0.0 sec)
Final contraction and storage  ... done (      0.0 sec)

Time for X-Grid setup             =    0.187 sec
--------------
SCF ITERATIONS
--------------
ITER       Energy         Delta-E        Max-DP      RMS-DP      [F,P]     Damp
               ***  Starting incremental Fock matrix formation  ***
  0   -227.0911901584   0.000000000000 0.08032958  0.00294761  0.2350264 0.7000
  1   -227.1720919639  -0.080901805495 0.04995055  0.00207412  0.1095246 0.7000
                               ***Turning on DIIS***
  2   -227.2029137843  -0.030821820386 0.06560135  0.00325670  0.0382405 0.0000
  3   -227.2496856839  -0.046771899627 0.03470635  0.00147710  0.0602046 0.0000
  4   -227.2614809432  -0.011795259239 0.01072384  0.00042803  0.0151738 0.0000
  5   -227.2622799176  -0.000798974415 0.00302066  0.00013963  0.0036509 0.0000
                      *** Initiating the SOSCF procedure ***
                           *** Shutting down DIIS ***
                      *** Re-Reading the Fockian *** 
                      *** Removing any level shift *** 
ITER      Energy       Delta-E        Grad      Rot      Max-DP    RMS-DP
  6   -227.26232570  -0.0000457850  0.000371  0.000371  0.001497  0.000080
               *** Restarting incremental Fock matrix formation ***
  7   -227.26233710  -0.0000113943  0.000323  0.001855  0.001393  0.000053
  8   -227.26233331   0.0000037864  0.000722  0.001406  0.000880  0.000034
  9   -227.26233864  -0.0000053246  0.000060  0.000179  0.000224  0.000008
 10   -227.26233853   0.0000001013  0.000091  0.000114  0.000150  0.000005
 11   -227.26233869  -0.0000001603  0.000012  0.000040  0.000060  0.000002
 12   -227.26233869   0.0000000074  0.000022  0.000026  0.000040  0.000001
                 **** Energy Check signals convergence ****
              ***Rediagonalizing the Fockian in SOSCF/NRSCF***

               *****************************************************
               *                     SUCCESS                       *
               *           SCF CONVERGED AFTER  13 CYCLES          *
               *****************************************************

Setting up the final grid:

General Integration Accuracy     IntAcc      ...  4.670
Radial Grid Type                 RadialGrid  ... Gauss-Chebyshev
Angular Grid (max. acc.)         AngularGrid ... Lebedev-302
Angular grid pruning method      GridPruning ... 3 (G Style)
Weight generation scheme         WeightScheme... Becke
Basis function cutoff            BFCut       ...    1.0000e-11
Integration weight cutoff        WCut        ...    1.0000e-14
Grids for H and He will be reduced by one unit

# of grid points (after initial pruning)     ...  51424 (   0.0 sec)
# of grid points (after weights+screening)   ...  48454 (   0.0 sec)
nearest neighbour list constructed           ...    0.0 sec
Grid point re-assignment to atoms done       ...    0.0 sec
Grid point division into batches done        ...    0.2 sec
Reduced shell lists constructed in    0.2 sec

Total number of grid points                  ...    48454
Total number of batches                      ...      762
Average number of points per batch           ...       63
Average number of grid points per atom       ...     4405
Average number of shells per batch           ...    42.23 (87.99%)
Average number of basis functions per batch  ...    86.70 (86.70%)
Average number of large shells per batch     ...    35.20 (83.33%)
Average number of large basis fcns per batch ...    72.10 (83.16%)
Maximum spatial batch extension              ...   3.77,  7.79, 17.92 au
Average spatial batch extension              ...   0.22,  0.24,  0.31 au

Final grid set up in    0.3 sec
Final integration                            ... done (   0.1 sec)
Change in XC energy                          ...    -0.000051566
Integrated number of electrons               ...    38.000006342
Previous integrated no of electrons          ...    38.002113754
Old exchange energy                            =     -6.173738209 Eh
New exchange energy                            =     -6.173258248 Eh
Exchange energy change after final integration =      0.000479961 Eh
Total energy after final integration           =   -227.261910299 Eh
Final COS-X integration done in                =     0.567 sec

----------------
TOTAL SCF ENERGY
----------------

Total Energy       :         -227.26191030 Eh           -6184.11097 eV

Components:
Nuclear Repulsion  :          161.16085753 Eh            4385.40988 eV
Electronic Energy  :         -388.42276783 Eh          -10569.52086 eV
One Electron Energy:         -625.41024738 Eh          -17018.27802 eV
Two Electron Energy:          236.98747956 Eh            6448.75717 eV

Virial components:
Potential Energy   :         -453.14452924 Eh          -12330.68952 eV
Kinetic Energy     :          225.88261894 Eh            6146.57855 eV
Virial Ratio       :            2.00610623


DFT components:
N(Alpha)           :       19.000003170773 electrons
N(Beta)            :       19.000003170773 electrons
N(Total)           :       38.000006341546 electrons
E(X)               :      -24.530012734726 Eh       
E(C)               :       -1.491124250553 Eh       
E(XC)              :      -26.021136985279 Eh       

---------------
SCF CONVERGENCE
---------------

  Last Energy change         ...   -6.9399e-09  Tolerance :   1.0000e-08
  Last MAX-Density change    ...    4.5120e-15  Tolerance :   1.0000e-07
  Last RMS-Density change    ...    9.6916e-17  Tolerance :   5.0000e-09
  Last Orbital Gradient      ...    3.0259e-07  Tolerance :   1.0000e-05
  Last Orbital Rotation      ...    8.1606e-07  Tolerance :   1.0000e-05

             **** THE GBW FILE WAS UPDATED (g8raf/frag_26_c00001.gbw) ****
             **** DENSITY FILE WAS UPDATED (g8raf/frag_26_c00001.scfp.tmp) ****
             **** ENERGY FILE WAS UPDATED (g8raf/frag_26_c00001.en.tmp) ****
----------------
ORBITAL ENERGIES
----------------

  NO   OCC          E(Eh)            E(eV) 
   0   2.0000     -14.331799      -389.9881 
   1   2.0000     -14.327121      -389.8608 
   2   2.0000     -10.213367      -277.9198 
   3   2.0000     -10.212651      -277.9003 
   4   2.0000     -10.183887      -277.1177 
   5   2.0000      -0.930760       -25.3273 
   6   2.0000      -0.899664       -24.4811 
   7   2.0000      -0.729670       -19.8553 
   8   2.0000      -0.623155       -16.9569 
   9   2.0000      -0.547702       -14.9037 
  10   2.0000      -0.525442       -14.2980 
  11   2.0000      -0.481315       -13.0972 
  12   2.0000      -0.450094       -12.2477 
  13   2.0000      -0.401935       -10.9372 
  14   2.0000      -0.383846       -10.4450 
  15   2.0000      -0.369269       -10.0483 
  16   2.0000      -0.315303        -8.5798 
  17   2.0000      -0.258135        -7.0242 
  18   2.0000      -0.197301        -5.3688 
  19   0.0000      -0.023191        -0.6311 
  20   0.0000       0.062034         1.6880 
  21   0.0000       0.084314         2.2943 
  22   0.0000       0.088297         2.4027 
  23   0.0000       0.097484         2.6527 
  24   0.0000       0.138906         3.7798 
  25   0.0000       0.145261         3.9527 
  26   0.0000       0.166352         4.5267 
  27   0.0000       0.222356         6.0506 
  28   0.0000       0.298697         8.1280 
  29   0.0000       0.361196         9.8286 
  30   0.0000       0.414785        11.2869 
  31   0.0000       0.455828        12.4037 
  32   0.0000       0.462262        12.5788 
  33   0.0000       0.465317        12.6619 
  34   0.0000       0.496001        13.4969 
  35   0.0000       0.514054        13.9881 
  36   0.0000       0.526213        14.3190 
  37   0.0000       0.560783        15.2597 
  38   0.0000       0.589502        16.0412 
  39   0.0000       0.596451        16.2303 
  40   0.0000       0.609608        16.5883 
  41   0.0000       0.663423        18.0527 
  42   0.0000       0.669816        18.2266 
  43   0.0000       0.710174        19.3248 
  44   0.0000       0.747660        20.3449 
  45   0.0000       0.757328        20.6079 
  46   0.0000       0.786805        21.4101 
  47   0.0000       0.810560        22.0564 
  48   0.0000       0.823762        22.4157 
  49   0.0000       0.884773        24.0759 
  50   0.0000       0.910486        24.7756 
  51   0.0000       0.950185        25.8558 
  52   0.0000       0.960990        26.1499 
  53   0.0000       0.993892        27.0452 
  54   0.0000       1.016935        27.6722 
  55   0.0000       1.051247        28.6059 
  56   0.0000       1.078328        29.3428 
  57   0.0000       1.132463        30.8159 
  58   0.0000       1.187273        32.3073 
  59   0.0000       1.234688        33.5976 
  60   0.0000       1.278745        34.7964 
  61   0.0000       1.373879        37.3851 
  62   0.0000       1.395523        37.9741 
  63   0.0000       1.440986        39.2112 
  64   0.0000       1.464881        39.8614 
  65   0.0000       1.508210        41.0405 
  66   0.0000       1.546638        42.0862 
  67   0.0000       1.575888        42.8821 
  68   0.0000       1.603874        43.6436 
  69   0.0000       1.622304        44.1451 
  70   0.0000       1.662513        45.2393 
  71   0.0000       1.680606        45.7316 
  72   0.0000       1.693918        46.0938 
  73   0.0000       1.715257        46.6745 
  74   0.0000       1.732816        47.1523 
  75   0.0000       1.824510        49.6474 
  76   0.0000       1.837051        49.9887 
  77   0.0000       1.838793        50.0361 
  78   0.0000       1.915065        52.1116 
  79   0.0000       1.944466        52.9116 
  80   0.0000       1.959859        53.3305 
  81   0.0000       2.033273        55.3282 
  82   0.0000       2.089896        56.8690 
  83   0.0000       2.120547        57.7030 
  84   0.0000       2.259629        61.4876 
  85   0.0000       2.265845        61.6568 
  86   0.0000       2.322318        63.1935 
  87   0.0000       2.345297        63.8188 
  88   0.0000       2.398523        65.2671 
  89   0.0000       2.412989        65.6608 
  90   0.0000       2.457966        66.8847 
  91   0.0000       2.525591        68.7248 
  92   0.0000       2.595278        70.6211 
  93   0.0000       2.648666        72.0739 
  94   0.0000       2.687567        73.1324 
  95   0.0000       2.729948        74.2857 
  96   0.0000       2.827505        76.9403 
  97   0.0000       2.990323        81.3708 
  98   0.0000       3.034683        82.5779 
  99   0.0000       3.288747        89.4914 
-------
TIMINGS
-------

Total SCF time: 0 days 0 hours 0 min 8 sec 

Total time                  ....       8.186 sec
Sum of individual times     ....       8.150 sec  ( 99.6%)

Fock matrix formation       ....       7.283 sec  ( 89.0%)
  Split-RI-J                ....       2.045 sec  ( 28.1% of F)
  Chain of spheres X        ....       4.554 sec  ( 62.5% of F)
  COS-X 1 center corr.      ....       0.000 sec  (  0.0% of F)
  XC integration            ....       0.630 sec  (  8.7% of F)
    Basis function eval.    ....       0.208 sec  ( 33.0% of XC)
    Density eval.           ....       0.081 sec  ( 12.8% of XC)
    XC-Functional eval.     ....       0.033 sec  (  5.2% of XC)
    XC-Potential eval.      ....       0.182 sec  ( 28.8% of XC)
Diagonalization             ....       0.017 sec  (  0.2%)
Density matrix formation    ....       0.016 sec  (  0.2%)
Population analysis         ....       0.000 sec  (  0.0%)
Initial guess               ....       0.182 sec  (  2.2%)
Orbital Transformation      ....       0.000 sec  (  0.0%)
Orbital Orthonormalization  ....       0.000 sec  (  0.0%)
DIIS solution               ....       0.005 sec  (  0.1%)
SOSCF solution              ....       0.068 sec  (  0.8%)
Grid generation             ....       0.580 sec  (  7.1%)


-------------------------------------------------------------------------------
                          DFT DISPERSION CORRECTION                            
                                                                               
                              DFTD3 V3.1  Rev 1                                
                          USING Becke-Johnson damping                          
-------------------------------------------------------------------------------
The B3LYP functional is recognized
Active option DFTDOPT                   ...         4   

molecular C6(AA) [au] = 1153.608864 


            DFT-D V3
 parameters
 s6 scaling factor         :     1.0000 
 a1 scaling factor         :     0.3981 
 s8 scaling factor         :     1.9889 
 a2 scaling factor         :     4.4211 
 ad hoc parameters k1-k3   :    16.0000     1.3333    -4.0000 

 Edisp/kcal,au: -7.977249533231  -0.012712554969 
 E6   /kcal   :  -3.871659344 
 E8   /kcal   :  -4.105590189 
 % E8         :  51.466237478 

-------------------------   ----------------
Dispersion correction           -0.012712555
-------------------------   ----------------


-------------------------   --------------------
FINAL SINGLE POINT ENERGY      -227.274622853636
-------------------------   --------------------



           ************************************************************
           *        Program running with 6 parallel MPI-processes     *
           *              working on a common directory               *
           ************************************************************
------------------------------------------------------------------------------
                         ORCA SCF GRADIENT CALCULATION
------------------------------------------------------------------------------

Gradient of the Kohn-Sham DFT energy:
Kohn-Sham wavefunction type      ... RKS
Hartree-Fock exchange scaling    ...    0.200
Number of operators              ...    1
Number of atoms                  ...   11
Basis set dimensions             ...  100
Integral neglect threshold       ... 2.5e-11
Integral primitive cutoff        ... 2.5e-12

Nuclear repulsion gradient       ... done
One Electron Gradient            ... done
Pre-screening matrix             ... done
RI-J gradient                    ... done
COSX-gradient                    ... done
Exchange-correlation gradient    ... done
Dispersion correction            ... done

------------------
CARTESIAN GRADIENT
------------------

   1   C   :   -0.001898341    0.015089115    0.000063446
   2   N   :   -0.020537192   -0.001410851   -0.001227248
   3   C   :    0.001929084   -0.010892303    0.002599374
   4   C   :    0.016585706    0.000616712   -0.006646847
   5   N   :   -0.007238985    0.009920745    0.001711392
   6   H   :    0.002611097   -0.001500773    0.000663860
   7   H   :    0.003160900   -0.001470784   -0.000473662
   8   H   :   -0.003002266   -0.007709384    0.002073643
   9   H   :    0.000901951   -0.006740380    0.000020864
  10   H   :    0.003858857    0.001927705    0.000184361
  11   H   :    0.002865301    0.002470160    0.001137769

Difference to translation invariance:
           :   -0.0007638879    0.0002999616    0.0001069523

Norm of the cartesian gradient     ...    0.0378710106
RMS gradient                       ...    0.0065924967
MAX gradient                       ...    0.0205371922

-------
TIMINGS
-------

Total SCF gradient time            ...        1.761 sec

One electron gradient       ....       0.024 sec  (  1.4%)
Prescreening matrices       ....       0.058 sec  (  3.3%)
RI-J Coulomb gradient       ....       0.215 sec  ( 12.2%)
COSX gradient               ....       0.647 sec  ( 36.8%)
XC gradient                 ....       0.385 sec  ( 21.9%)
------------------------------------------------------------------------------
                         ORCA GEOMETRY RELAXATION STEP
------------------------------------------------------------------------------

Reading the OPT-File                    .... done
Getting information on internals        .... done
Copying old internal coords+grads       .... done
Making the new internal coordinates     .... (new redundants).... done
Validating the new internal coordinates .... (new redundants).... done
Calculating the B-matrix                .... done
Calculating the G,G- and P matrices     .... done
Transforming gradient to internals      .... done
Projecting the internal gradient        .... done
Number of atoms                         ....  11
Number of internal coordinates          ....  35
Current Energy                          ....  -227.274622854 Eh
Current gradient norm                   ....     0.037871011 Eh/bohr
Maximum allowed component of the step   ....  0.300
Current trust radius                    ....  0.300
Evaluating the initial hessian          ....  (Almloef) done
Projecting the Hessian                  .... done
Forming the augmented Hessian           .... done
Diagonalizing the augmented Hessian     .... done
Last element of RFO vector              ....  0.981946836
Lowest eigenvalues of augmented Hessian:
 -0.004518017  0.026114455  0.027914346  0.034902697  0.035421020
Length of the computed step             ....  0.192634775
The final length of the internal step   ....  0.192634775
Converting the step to cartesian space:
 Initial RMS(Int)=    0.0325612199
Transforming coordinates:
 Iter   0:  RMS(Cart)=    0.0648471546 RMS(Int)=    1.8253600552
 Iter   1:  RMS(Cart)=    0.0030669665 RMS(Int)=    0.0023102146
 Iter   2:  RMS(Cart)=    0.0002119503 RMS(Int)=    0.0000895863
 Iter   3:  RMS(Cart)=    0.0000197749 RMS(Int)=    0.0000148329
 Iter   4:  RMS(Cart)=    0.0000013709 RMS(Int)=    0.0000007491
 Iter   5:  RMS(Cart)=    0.0000001232 RMS(Int)=    0.0000000986
 Iter   6:  RMS(Cart)=    0.0000000094 RMS(Int)=    0.0000000061
done
Storing new coordinates                 .... done

                                .--------------------.
          ----------------------|Geometry convergence|-------------------------
          Item                value                   Tolerance       Converged
          ---------------------------------------------------------------------
          RMS gradient        0.0070653756            0.0020000000      NO
          MAX gradient        0.0203605394            0.0030000000      NO
          RMS step            0.0325612199            0.0200000000      NO
          MAX step            0.0945246774            0.0300000000      NO
          ........................................................
          Max(Bonds)      0.0168      Max(Angles)    2.59
          Max(Dihed)        5.42      Max(Improp)    0.00
          ---------------------------------------------------------------------

The optimization has not yet converged - more geometry cycles are needed


    ---------------------------------------------------------------------------
                         Redundant Internal Coordinates
                            (Angstroem and degrees)

        Definition                    Value    dE/dq     Step     New-Value
    ----------------------------------------------------------------------------
     1. B(N   1,C   0)                1.2894  0.007795 -0.0051    1.2843   
     2. B(C   2,N   1)                1.3721 -0.019090  0.0168    1.3889   
     3. B(C   3,C   2)                1.3400 -0.018690  0.0131    1.3531   
     4. B(N   4,C   3)                1.3765 -0.013009  0.0116    1.3881   
     5. B(H   5,C   0)                1.1043 -0.000765  0.0012    1.1055   
     6. B(H   6,C   0)                1.1018  0.003404 -0.0052    1.0967   
     7. B(H   7,C   2)                1.0884 -0.008230  0.0119    1.1003   
     8. B(H   8,C   3)                1.0870 -0.005532  0.0079    1.0949   
     9. B(H   9,N   4)                1.0235  0.001638 -0.0021    1.0214   
    10. B(H  10,N   4)                1.0160 -0.001754  0.0022    1.0181   
    11. A(N   1,C   0,H   6)          119.28 -0.000658    0.07    119.35   
    12. A(H   5,C   0,H   6)          116.31 -0.002796    0.51    116.82   
    13. A(N   1,C   0,H   5)          124.41  0.003454   -0.57    123.83   
    14. A(C   0,N   1,C   2)          115.87 -0.020361    2.59    118.46   
    15. A(N   1,C   2,H   7)          119.92 -0.002691    0.36    120.28   
    16. A(N   1,C   2,C   3)          121.59  0.007029   -0.96    120.63   
    17. A(C   3,C   2,H   7)          118.49 -0.004339    0.60    119.09   
    18. A(C   2,C   3,N   4)          125.83  0.003830   -0.52    125.31   
    19. A(N   4,C   3,H   8)          113.45 -0.006055    0.95    114.40   
    20. A(C   2,C   3,H   8)          120.72  0.002187   -0.37    120.35   
    21. A(H   9,N   4,H  10)          111.53  0.002910    0.10    111.63   
    22. A(C   3,N   4,H  10)          112.84 -0.003950    0.93    113.78   
    23. A(C   3,N   4,H   9)          109.32 -0.006089    1.30    110.62   
    24. D(C   2,N   1,C   0,H   5)     -0.03  0.001196   -1.24     -1.27   
    25. D(C   2,N   1,C   0,H   6)   -179.97  0.000998   -1.04   -181.00   
    26. D(C   3,C   2,N   1,C   0)   -179.98  0.001159   -2.06   -182.03   
    27. D(H   7,C   2,N   1,C   0)     -0.16  0.000638   -1.31     -1.47   
    28. D(N   4,C   3,C   2,H   7)   -179.91  0.003958   -5.42   -185.33   
    29. D(H   8,C   3,C   2,N   1)    179.04  0.000081    0.24    179.28   
    30. D(N   4,C   3,C   2,N   1)     -0.09  0.003447   -4.68     -4.77   
    31. D(H   8,C   3,C   2,H   7)     -0.78  0.000592   -0.50     -1.28   
    32. D(H  10,N   4,C   3,H   8)    -45.09 -0.001361    0.51    -44.57   
    33. D(H  10,N   4,C   3,C   2)    134.10 -0.004459    5.12    139.21   
    34. D(H   9,N   4,C   3,H   8)   -169.81  0.002290   -1.27   -171.08   
    35. D(H   9,N   4,C   3,C   2)      9.38 -0.000808    3.33     12.71   
    ----------------------------------------------------------------------------

         *************************************************************
         *                GEOMETRY OPTIMIZATION CYCLE   2            *
         *************************************************************
---------------------------------
CARTESIAN COORDINATES (ANGSTROEM)
---------------------------------
  C      5.181340   -0.949416    0.006240
  N      3.951852   -1.317158    0.056530
  C      2.966476   -0.339027    0.020421
  C      1.656854   -0.679216    0.029493
  N      1.165658   -1.976587   -0.020382
  H      5.505644    0.103465   -0.084842
  H      5.971601   -1.708503    0.050475
  H      3.242469    0.725089   -0.025437
  H      0.884514    0.096721    0.012890
  H      1.914596   -2.651069    0.145518
  H      0.371897   -2.138699    0.596294

----------------------------
CARTESIAN COORDINATES (A.U.)
----------------------------
  NO LB      ZA    FRAG     MASS         X           Y           Z
   0 C     6.0000    0    12.011    9.791314   -1.794135    0.011791
   1 N     7.0000    0    14.007    7.467918   -2.489068    0.106826
   2 C     6.0000    0    12.011    5.605827   -0.640668    0.038590
   3 C     6.0000    0    12.011    3.131000   -1.283532    0.055734
   4 N     7.0000    0    14.007    2.202774   -3.735207   -0.038516
   5 H     1.0000    0     1.008   10.404159    0.195520   -0.160329
   6 H     1.0000    0     1.008   11.284691   -3.228603    0.095385
   7 H     1.0000    0     1.008    6.127378    1.370219   -0.048068
   8 H     1.0000    0     1.008    1.671489    0.182776    0.024358
   9 H     1.0000    0     1.008    3.618062   -5.009793    0.274989
  10 H     1.0000    0     1.008    0.702784   -4.041556    1.126832

--------------------------------
INTERNAL COORDINATES (ANGSTROEM)
--------------------------------
 C      0   0   0     0.000000000000     0.00000000     0.00000000
 N      1   0   0     1.284291635275     0.00000000     0.00000000
 C      2   1   0     1.388887978091   118.45858637     0.00000000
 C      3   2   1     1.353115168829   120.62617457   177.96643827
 N      4   3   2     1.388139435947   125.25451366   355.24741005
 H      1   2   3     1.105452548537   123.83451633   358.72762325
 H      1   2   3     1.096669075460   119.34553248   178.99514384
 H      3   2   1     1.100280508884   120.28008523   358.53403414
 H      4   3   2     1.094926218126   120.29412886   179.27185337
 H      5   4   3     1.021448317932   110.60097875    12.71296791
 H      5   4   3     1.018147975907   113.76068824   139.23700239

---------------------------
INTERNAL COORDINATES (A.U.)
---------------------------
 C      0   0   0     0.000000000000     0.00000000     0.00000000
 N      1   0   0     2.426959466757     0.00000000     0.00000000
 C      2   1   0     2.624617909287   118.45858637     0.00000000
 C      3   2   1     2.557017096742   120.62617457   177.96643827
 N      4   3   2     2.623203369636   125.25451366   355.24741005
 H      1   2   3     2.089002570781   123.83451633   358.72762325
 H      1   2   3     2.072404212159   119.34553248   178.99514384
 H      3   2   1     2.079228832283   120.28008523   358.53403414
 H      4   3   2     2.069110689108   120.29412886   179.27185337
 H      5   4   3     1.930257580846   110.60097875    12.71296791
 H      5   4   3     1.924020838271   113.76068824   139.23700239



           ************************************************************
           *        Program running with 6 parallel MPI-processes     *
           *              working on a common directory               *
           ************************************************************
 One Electron integrals                  ... done
 Pre-screening matrix                    ... done


           ************************************************************
           *        Program running with 6 parallel MPI-processes     *
           *              working on a common directory               *
           ************************************************************

Diagonalization of the overlap matrix:
Smallest eigenvalue                        ... 1.734e-03
Time for diagonalization                   ...    0.003 sec
Threshold for overlap eigenvalues          ... 1.000e-08
Number of eigenvalues below threshold      ... 0
Time for construction of square roots      ...    0.001 sec
Total time needed                          ...    0.004 sec

-------------------
DFT GRID GENERATION
-------------------

General Integration Accuracy     IntAcc      ...  4.340
Radial Grid Type                 RadialGrid  ... Gauss-Chebyshev
Angular Grid (max. acc.)         AngularGrid ... Lebedev-110
Angular grid pruning method      GridPruning ... 3 (G Style)
Weight generation scheme         WeightScheme... Becke
Basis function cutoff            BFCut       ...    1.0000e-11
Integration weight cutoff        WCut        ...    1.0000e-14
Grids for H and He will be reduced by one unit

# of grid points (after initial pruning)     ...  13136 (   0.0 sec)
# of grid points (after weights+screening)   ...  12523 (   0.0 sec)
nearest neighbour list constructed           ...    0.0 sec
Grid point re-assignment to atoms done       ...    0.0 sec
Grid point division into batches done        ...    0.0 sec
Reduced shell lists constructed in    0.0 sec

Total number of grid points                  ...    12523
Total number of batches                      ...      201
Average number of points per batch           ...       62
Average number of grid points per atom       ...     1138
Average number of shells per batch           ...    43.11 (89.82%)
Average number of basis functions per batch  ...    88.54 (88.54%)
Average number of large shells per batch     ...    36.77 (85.29%)
Average number of large basis fcns per batch ...    75.86 (85.67%)
Maximum spatial batch extension              ...   3.76,  5.47, 19.94 au
Average spatial batch extension              ...   0.33,  0.35,  0.57 au

Time for grid setup =    0.048 sec

--------------------
COSX GRID GENERATION
--------------------

General Integration Accuracy     IntAcc      ...  3.340
Radial Grid Type                 RadialGrid  ... Gauss-Chebyshev
Angular Grid (max. acc.)         AngularGrid ... Lebedev-50
Angular grid pruning method      GridPruning ... 3 (G Style)
Weight generation scheme         WeightScheme... Becke
Basis function cutoff            BFCut       ...    1.0000e-11
Integration weight cutoff        WCut        ...    1.0000e-14
Grids for H and He will be reduced by one unit

# of grid points (after initial pruning)     ...   4792 (   0.0 sec)
# of grid points (after weights+screening)   ...   4578 (   0.0 sec)
nearest neighbour list constructed           ...    0.0 sec
Grid point re-assignment to atoms done       ...    0.0 sec
Grid point division into batches done        ...    0.0 sec
Reduced shell lists constructed in    0.0 sec

Total number of grid points                  ...     4578
Total number of batches                      ...       77
Average number of points per batch           ...       59
Average number of grid points per atom       ...      416
Average number of shells per batch           ...    41.21 (85.86%)
Average number of basis functions per batch  ...    84.79 (84.79%)
Average number of large shells per batch     ...    36.14 (87.69%)
Average number of large basis fcns per batch ...    74.86 (88.29%)
Maximum spatial batch extension              ...   3.61,  4.68, 17.08 au
Average spatial batch extension              ...   0.40,  0.43,  1.05 au

Overlap Fitting                  UseSFitting ... on
Constructing numerical overlap ... done (      0.0 sec)
Inverting numerical overlap    ... done (      0.0 sec)
Obtaining analytic overlap     ... done (      0.0 sec)
Final contraction and storage  ... done (      0.0 sec)


General Integration Accuracy     IntAcc      ...  3.670
Radial Grid Type                 RadialGrid  ... Gauss-Chebyshev
Angular Grid (max. acc.)         AngularGrid ... Lebedev-50
Angular grid pruning method      GridPruning ... 3 (G Style)
Weight generation scheme         WeightScheme... Becke
Basis function cutoff            BFCut       ...    1.0000e-11
Integration weight cutoff        WCut        ...    1.0000e-14
Grids for H and He will be reduced by one unit

# of grid points (after initial pruning)     ...   6146 (   0.0 sec)
# of grid points (after weights+screening)   ...   5856 (   0.0 sec)
nearest neighbour list constructed           ...    0.0 sec
Grid point re-assignment to atoms done       ...    0.0 sec
Grid point division into batches done        ...    0.0 sec
Reduced shell lists constructed in    0.0 sec

Total number of grid points                  ...     5856
Total number of batches                      ...       96
Average number of points per batch           ...       61
Average number of grid points per atom       ...      532
Average number of shells per batch           ...    41.71 (86.89%)
Average number of basis functions per batch  ...    85.71 (85.71%)
Average number of large shells per batch     ...    36.65 (87.87%)
Average number of large basis fcns per batch ...    75.35 (87.92%)
Maximum spatial batch extension              ...   3.61,  4.28, 18.36 au
Average spatial batch extension              ...   0.38,  0.40,  0.69 au

Overlap Fitting                  UseSFitting ... on
Constructing numerical overlap ... done (      0.0 sec)
Inverting numerical overlap    ... done (      0.0 sec)
Obtaining analytic overlap     ... done (      0.0 sec)
Final contraction and storage  ... done (      0.0 sec)


General Integration Accuracy     IntAcc      ...  4.010
Radial Grid Type                 RadialGrid  ... Gauss-Chebyshev
Angular Grid (max. acc.)         AngularGrid ... Lebedev-110
Angular grid pruning method      GridPruning ... 3 (G Style)
Weight generation scheme         WeightScheme... Becke
Basis function cutoff            BFCut       ...    1.0000e-11
Integration weight cutoff        WCut        ...    1.0000e-14
Grids for H and He will be reduced by one unit

# of grid points (after initial pruning)     ...  11348 (   0.0 sec)
# of grid points (after weights+screening)   ...  10830 (   0.0 sec)
nearest neighbour list constructed           ...    0.0 sec
Grid point re-assignment to atoms done       ...    0.0 sec
Grid point division into batches done        ...    0.0 sec
Reduced shell lists constructed in    0.0 sec

Total number of grid points                  ...    10830
Total number of batches                      ...      176
Average number of points per batch           ...       61
Average number of grid points per atom       ...      985
Average number of shells per batch           ...    42.81 (89.18%)
Average number of basis functions per batch  ...    87.90 (87.90%)
Average number of large shells per batch     ...    36.55 (85.38%)
Average number of large basis fcns per batch ...    75.19 (85.54%)
Maximum spatial batch extension              ...   3.77,  6.20, 18.94 au
Average spatial batch extension              ...   0.33,  0.37,  0.63 au

Overlap Fitting                  UseSFitting ... on
Constructing numerical overlap ... done (      0.0 sec)
Inverting numerical overlap    ... done (      0.0 sec)
Obtaining analytic overlap     ... done (      0.0 sec)
Final contraction and storage  ... done (      0.0 sec)

Time for X-Grid setup             =    0.197 sec
--------------
SCF ITERATIONS
--------------
ITER       Energy         Delta-E        Max-DP      RMS-DP      [F,P]     Damp
               ***  Starting incremental Fock matrix formation  ***
  0   -227.2602068466   0.000000000000 0.00638018  0.00029206  0.0194269 0.7000
                      *** Initiating the SOSCF procedure ***
                      *** Re-Reading the Fockian *** 
                      *** Removing any level shift *** 
ITER      Energy       Delta-E        Grad      Rot      Max-DP    RMS-DP
  1   -227.26146442  -0.0012575708  0.003017  0.003017  0.020568  0.000913
               *** Restarting incremental Fock matrix formation ***
  2   -227.26491963  -0.0034552122  0.002316  0.010048  0.005625  0.000287
  3   -227.26505354  -0.0001339109  0.001241  0.006344  0.006135  0.000204
  4   -227.26503607   0.0000174702  0.001537  0.003406  0.003661  0.000123
  5   -227.26508317  -0.0000471022  0.000245  0.000490  0.001187  0.000032
  6   -227.26508262   0.0000005492  0.000298  0.000304  0.000690  0.000019
  7   -227.26508437  -0.0000017483  0.000025  0.000071  0.000143  0.000005
  8   -227.26508434   0.0000000279  0.000042  0.000057  0.000091  0.000003
  9   -227.26508438  -0.0000000343  0.000006  0.000027  0.000028  0.000001
 10   -227.26508438  -0.0000000047  0.000007  0.000015  0.000016  0.000001
                  ***Gradient check signals convergence***
              ***Rediagonalizing the Fockian in SOSCF/NRSCF***

               *****************************************************
               *                     SUCCESS                       *
               *           SCF CONVERGED AFTER  11 CYCLES          *
               *****************************************************

Setting up the final grid:

General Integration Accuracy     IntAcc      ...  4.670
Radial Grid Type                 RadialGrid  ... Gauss-Chebyshev
Angular Grid (max. acc.)         AngularGrid ... Lebedev-302
Angular grid pruning method      GridPruning ... 3 (G Style)
Weight generation scheme         WeightScheme... Becke
Basis function cutoff            BFCut       ...    1.0000e-11
Integration weight cutoff        WCut        ...    1.0000e-14
Grids for H and He will be reduced by one unit

# of grid points (after initial pruning)     ...  51424 (   0.0 sec)
# of grid points (after weights+screening)   ...  48472 (   0.0 sec)
nearest neighbour list constructed           ...    0.0 sec
Grid point re-assignment to atoms done       ...    0.0 sec
Grid point division into batches done        ...    0.2 sec
Reduced shell lists constructed in    0.2 sec

Total number of grid points                  ...    48472
Total number of batches                      ...      764
Average number of points per batch           ...       63
Average number of grid points per atom       ...     4407
Average number of shells per batch           ...    42.40 (88.32%)
Average number of basis functions per batch  ...    87.06 (87.06%)
Average number of large shells per batch     ...    35.19 (83.01%)
Average number of large basis fcns per batch ...    72.06 (82.77%)
Maximum spatial batch extension              ...   3.50,  6.83, 18.07 au
Average spatial batch extension              ...   0.22,  0.24,  0.32 au

Final grid set up in    0.3 sec
Final integration                            ... done (   0.1 sec)
Change in XC energy                          ...    -0.000039143
Integrated number of electrons               ...    37.999997569
Previous integrated no of electrons          ...    38.001654492
Old exchange energy                            =     -6.167477730 Eh
New exchange energy                            =     -6.167009292 Eh
Exchange energy change after final integration =      0.000468438 Eh
Total energy after final integration           =   -227.264655089 Eh
Final COS-X integration done in                =     0.587 sec
Total Energy       :         -227.26465509 Eh           -6184.18566 eV
  Last Energy change         ...   -6.6623e-10  Tolerance :   1.0000e-08
  Last MAX-Density change    ...    2.0051e-14  Tolerance :   1.0000e-07
             **** THE GBW FILE WAS UPDATED (g8raf/frag_26_c00001.gbw) ****
             **** DENSITY FILE WAS UPDATED (g8raf/frag_26_c00001.scfp.tmp) ****
             **** ENERGY FILE WAS UPDATED (g8raf/frag_26_c00001.en.tmp) ****
Total SCF time: 0 days 0 hours 0 min 6 sec 


-------------------------------------------------------------------------------
                          DFT DISPERSION CORRECTION                            
                                                                               
                              DFTD3 V3.1  Rev 1                                
                          USING Becke-Johnson damping                          
-------------------------------------------------------------------------------
-------------------------   ----------------
Dispersion correction           -0.012636885
-------------------------   ----------------


-------------------------   --------------------
FINAL SINGLE POINT ENERGY      -227.277291973566
-------------------------   --------------------



           ************************************************************
           *        Program running with 6 parallel MPI-processes     *
           *              working on a common directory               *
           ************************************************************
------------------------------------------------------------------------------
                         ORCA SCF GRADIENT CALCULATION
------------------------------------------------------------------------------

Gradient of the Kohn-Sham DFT energy:
Kohn-Sham wavefunction type      ... RKS
Hartree-Fock exchange scaling    ...    0.200
Number of operators              ...    1
Number of atoms                  ...   11
Basis set dimensions             ...  100
Integral neglect threshold       ... 2.5e-11
Integral primitive cutoff        ... 2.5e-12

Nuclear repulsion gradient       ... done
One Electron Gradient            ... done
Pre-screening matrix             ... done
RI-J gradient                    ... done
COSX-gradient                    ... done
Exchange-correlation gradient    ... done
Dispersion correction            ... done

------------------
CARTESIAN GRADIENT
------------------

   1   C   :    0.002388533    0.004684612   -0.000139826
   2   N   :   -0.004639778   -0.002142746   -0.000441669
   3   C   :   -0.000418907   -0.004748034    0.001156163
   4   C   :    0.006979125    0.003993957   -0.000051038
   5   N   :   -0.005841698   -0.001215926   -0.002076063
   6   H   :    0.001270811   -0.001193287   -0.000240922
   7   H   :    0.000509600    0.000574611   -0.000054476
   8   H   :   -0.000889935    0.000243305    0.000233985
   9   H   :   -0.001733053   -0.001109837   -0.000918294
  10   H   :    0.001150420    0.000608550    0.000225454
  11   H   :    0.000624220    0.000850652    0.001822769

Difference to translation invariance:
           :   -0.0006006616    0.0005458563   -0.0004839185

Norm of the cartesian gradient     ...    0.0140879812
RMS gradient                       ...    0.0024524027
MAX gradient                       ...    0.0069791254

-------
TIMINGS
-------

Total SCF gradient time            ...        1.796 sec

One electron gradient       ....       0.027 sec  (  1.5%)
Prescreening matrices       ....       0.033 sec  (  1.8%)
RI-J Coulomb gradient       ....       0.282 sec  ( 15.7%)
COSX gradient               ....       0.555 sec  ( 30.9%)
XC gradient                 ....       0.519 sec  ( 28.9%)
------------------------------------------------------------------------------
                         ORCA GEOMETRY RELAXATION STEP
------------------------------------------------------------------------------

Reading the OPT-File                    .... done
Getting information on internals        .... done
Copying old internal coords+grads       .... done
Making the new internal coordinates     .... (new redundants).... done
Validating the new internal coordinates .... (new redundants).... done
Calculating the B-matrix                .... done
Calculating the G,G- and P matrices     .... done
Transforming gradient to internals      .... done
Projecting the internal gradient        .... done
Number of atoms                         ....  11
Number of internal coordinates          ....  35
Current Energy                          ....  -227.277291974 Eh
Current gradient norm                   ....     0.014087981 Eh/bohr
Maximum allowed component of the step   ....  0.300
Current trust radius                    ....  0.300
Updating the Hessian (BFGS)             .... done
Forming the augmented Hessian           .... done
Diagonalizing the augmented Hessian     .... done
Last element of RFO vector              ....  0.995741659
Lowest eigenvalues of augmented Hessian:
 -0.000692831  0.025985131  0.026816236  0.035012624  0.035390524
Length of the computed step             ....  0.092581816
The final length of the internal step   ....  0.092581816
Converting the step to cartesian space:
 Initial RMS(Int)=    0.0156491831
Transforming coordinates:
 Iter   0:  RMS(Cart)=    0.0330325303 RMS(Int)=    0.0156768607
 Iter   1:  RMS(Cart)=    0.0007340832 RMS(Int)=    0.0005475334
 Iter   2:  RMS(Cart)=    0.0000270213 RMS(Int)=    0.0000191176
 Iter   3:  RMS(Cart)=    0.0000016119 RMS(Int)=    0.0000014468
 Iter   4:  RMS(Cart)=    0.0000000729 RMS(Int)=    0.0000000581
done
Storing new coordinates                 .... done

                                .--------------------.
          ----------------------|Geometry convergence|-------------------------
          Item                value                   Tolerance       Converged
          ---------------------------------------------------------------------
          Energy change      -0.0026691199            0.0001000000      NO
          RMS gradient        0.0021728117            0.0020000000      NO
          MAX gradient        0.0057754572            0.0030000000      NO
          RMS step            0.0156491831            0.0200000000      YES
          MAX step            0.0537158331            0.0300000000      NO
          ........................................................
          Max(Bonds)      0.0049      Max(Angles)    1.10
          Max(Dihed)        3.08      Max(Improp)    0.00
          ---------------------------------------------------------------------

The optimization has not yet converged - more geometry cycles are needed


    ---------------------------------------------------------------------------
                         Redundant Internal Coordinates
                            (Angstroem and degrees)

        Definition                    Value    dE/dq     Step     New-Value
    ----------------------------------------------------------------------------
     1. B(N   1,C   0)                1.2843  0.005310 -0.0049    1.2794   
     2. B(C   2,N   1)                1.3889 -0.001504  0.0032    1.3921   
     3. B(C   3,C   2)                1.3531 -0.002122  0.0031    1.3562   
     4. B(N   4,C   3)                1.3881  0.001397 -0.0005    1.3876   
     5. B(H   5,C   0)                1.1055 -0.000748  0.0016    1.1070   
     6. B(H   6,C   0)                1.0967  0.000021 -0.0005    1.0962   
     7. B(H   7,C   2)                1.1003 -0.000034  0.0011    1.1014   
     8. B(H   8,C   3)                1.0949  0.000367  0.0000    1.0950   
     9. B(H   9,N   4)                1.0214  0.000565 -0.0011    1.0203   
    10. B(H  10,N   4)                1.0181  0.000395 -0.0004    1.0177   
    11. A(N   1,C   0,H   6)          119.35 -0.000004   -0.02    119.32   
    12. A(H   5,C   0,H   6)          116.82 -0.001676    0.44    117.26   
    13. A(N   1,C   0,H   5)          123.83  0.001679   -0.42    123.42   
    14. A(C   0,N   1,C   2)          118.46 -0.004685    1.00    119.46   
    15. A(N   1,C   2,H   7)          120.28 -0.001978    0.36    120.64   
    16. A(N   1,C   2,C   3)          120.63  0.005775   -1.10    119.53   
    17. A(C   3,C   2,H   7)          119.09 -0.003796    0.73    119.83   
    18. A(C   2,C   3,N   4)          125.25  0.004065   -0.78    124.47   
    19. A(N   4,C   3,H   8)          114.34 -0.004148    0.87    115.21   
    20. A(C   2,C   3,H   8)          120.29  0.000110   -0.13    120.16   
    21. A(H   9,N   4,H  10)          111.60  0.000852    0.23    111.83   
    22. A(C   3,N   4,H  10)          113.76 -0.001898    0.67    114.43   
    23. A(C   3,N   4,H   9)          110.60 -0.001831    0.70    111.31   
    24. D(C   2,N   1,C   0,H   5)     -1.27 -0.000225    0.23     -1.04   
    25. D(C   2,N   1,C   0,H   6)    179.00 -0.000123    0.10    179.10   
    26. D(C   3,C   2,N   1,C   0)    177.97  0.000229   -0.69    177.28   
    27. D(H   7,C   2,N   1,C   0)     -1.47  0.000110   -0.39     -1.86   
    28. D(N   4,C   3,C   2,H   7)    174.69  0.000609   -1.54    173.15   
    29. D(H   8,C   3,C   2,N   1)    179.27  0.000153   -0.14    179.13   
    30. D(N   4,C   3,C   2,N   1)     -4.75  0.000482   -1.24     -5.99   
    31. D(H   8,C   3,C   2,H   7)     -1.29  0.000280   -0.44     -1.73   
    32. D(H  10,N   4,C   3,H   8)    -44.58 -0.001414    2.04    -42.54   
    33. D(H  10,N   4,C   3,C   2)    139.24 -0.001855    3.08    142.31   
    34. D(H   9,N   4,C   3,H   8)   -171.10  0.000455    0.70   -170.41   
    35. D(H   9,N   4,C   3,C   2)     12.71  0.000014    1.74     14.45   
    ----------------------------------------------------------------------------

         *************************************************************
         *                GEOMETRY OPTIMIZATION CYCLE   3            *
         *************************************************************
---------------------------------
CARTESIAN COORDINATES (ANGSTROEM)
---------------------------------
  C      5.173640   -0.962512    0.004589
  N      3.940886   -1.298193    0.071893
  C      2.959375   -0.311967    0.027329
  C      1.651269   -0.669684    0.042649
  N      1.194387   -1.978489   -0.018475
  H      5.515252    0.084713   -0.105582
  H      5.945158   -1.739566    0.054841
  H      3.235503    0.752486   -0.034388
  H      0.870822    0.098071    0.022537
  H      1.947868   -2.642551    0.161453
  H      0.378740   -2.166708    0.560353

----------------------------
CARTESIAN COORDINATES (A.U.)
----------------------------
  NO LB      ZA    FRAG     MASS         X           Y           Z
   0 C     6.0000    0    12.011    9.776763   -1.818884    0.008672
   1 N     7.0000    0    14.007    7.447196   -2.453229    0.135857
   2 C     6.0000    0    12.011    5.592409   -0.589532    0.051645
   3 C     6.0000    0    12.011    3.120445   -1.265520    0.080595
   4 N     7.0000    0    14.007    2.257064   -3.738802   -0.034914
   5 H     1.0000    0     1.008   10.422316    0.160084   -0.199522
   6 H     1.0000    0     1.008   11.234720   -3.287303    0.103635
   7 H     1.0000    0     1.008    6.114214    1.421992   -0.064983
   8 H     1.0000    0     1.008    1.645616    0.185327    0.042590
   9 H     1.0000    0     1.008    3.680938   -4.993698    0.305103
  10 H     1.0000    0     1.008    0.715715   -4.094484    1.058914

--------------------------------
INTERNAL COORDINATES (ANGSTROEM)
--------------------------------
[...]

--------------------
COSX GRID GENERATION
--------------------

General Integration Accuracy     IntAcc      ...  3.340
Radial Grid Type                 RadialGrid  ... Gauss-Chebyshev
Angular Grid (max. acc.)         AngularGrid ... Lebedev-50
Angular grid pruning method      GridPruning ... 3 (G Style)
Weight generation scheme         WeightScheme... Becke
Basis function cutoff            BFCut       ...    1.0000e-11
Integration weight cutoff        WCut        ...    1.0000e-14
Grids for H and He will be reduced by one unit

# of grid points (after initial pruning)     ...   4792 (   0.0 sec)
# of grid points (after weights+screening)   ...   4579 (   0.0 sec)
nearest neighbour list constructed           ...    0.0 sec
Grid point re-assignment to atoms done       ...    0.0 sec
Grid point division into batches done        ...    0.0 sec
Reduced shell lists constructed in    0.0 sec

Total number of grid points                  ...     4579
Total number of batches                      ...       76
Average number of points per batch           ...       60
Average number of grid points per atom       ...      416
Average number of shells per batch           ...    41.36 (86.16%)
Average number of basis functions per batch  ...    85.07 (85.07%)
Average number of large shells per batch     ...    36.50 (88.26%)
Average number of large basis fcns per batch ...    75.07 (88.25%)
Maximum spatial batch extension              ...   3.54,  4.66, 17.08 au
Average spatial batch extension              ...   0.40,  0.45,  1.03 au

Overlap Fitting                  UseSFitting ... on
Constructing numerical overlap ... done (      0.0 sec)
Inverting numerical overlap    ... done (      0.0 sec)
Obtaining analytic overlap     ... done (      0.0 sec)
Final contraction and storage  ... done (      0.0 sec)


General Integration Accuracy     IntAcc      ...  3.670
Radial Grid Type                 RadialGrid  ... Gauss-Chebyshev
Angular Grid (max. acc.)         AngularGrid ... Lebedev-50
Angular grid pruning method      GridPruning ... 3 (G Style)
Weight generation scheme         WeightScheme... Becke
Basis function cutoff            BFCut       ...    1.0000e-11
Integration weight cutoff        WCut        ...    1.0000e-14
Grids for H and He will be reduced by one unit

# of grid points (after initial pruning)     ...   6146 (   0.0 sec)
# of grid points (after weights+screening)   ...   5857 (   0.0 sec)
nearest neighbour list constructed           ...    0.0 sec
Grid point re-assignment to atoms done       ...    0.0 sec
Grid point division into batches done        ...    0.0 sec
Reduced shell lists constructed in    0.0 sec

Total number of grid points                  ...     5857
Total number of batches                      ...       96
Average number of points per batch           ...       61
Average number of grid points per atom       ...      532
Average number of shells per batch           ...    41.76 (87.01%)
Average number of basis functions per batch  ...    85.88 (85.88%)
Average number of large shells per batch     ...    36.53 (87.46%)
Average number of large basis fcns per batch ...    75.24 (87.60%)
Maximum spatial batch extension              ...   3.31,  4.30, 18.42 au
Average spatial batch extension              ...   0.37,  0.43,  0.67 au

Overlap Fitting                  UseSFitting ... on
Constructing numerical overlap ... done (      0.0 sec)
Inverting numerical overlap    ... done (      0.0 sec)
Obtaining analytic overlap     ... done (      0.0 sec)
Final contraction and storage  ... done (      0.0 sec)


General Integration Accuracy     IntAcc      ...  4.010
Radial Grid Type                 RadialGrid  ... Gauss-Chebyshev
Angular Grid (max. acc.)         AngularGrid ... Lebedev-110
Angular grid pruning method      GridPruning ... 3 (G Style)
Weight generation scheme         WeightScheme... Becke
Basis function cutoff            BFCut       ...    1.0000e-11
Integration weight cutoff        WCut        ...    1.0000e-14
Grids for H and He will be reduced by one unit

# of grid points (after initial pruning)     ...  11348 (   0.0 sec)
# of grid points (after weights+screening)   ...  10836 (   0.0 sec)
nearest neighbour list constructed           ...    0.0 sec
Grid point re-assignment to atoms done       ...    0.0 sec
Grid point division into batches done        ...    0.0 sec
Reduced shell lists constructed in    0.0 sec

Total number of grid points                  ...    10836
Total number of batches                      ...      176
Average number of points per batch           ...       61
Average number of grid points per atom       ...      985
Average number of shells per batch           ...    43.00 (89.58%)
Average number of basis functions per batch  ...    88.48 (88.48%)
Average number of large shells per batch     ...    36.61 (85.15%)
Average number of large basis fcns per batch ...    75.39 (85.20%)
Maximum spatial batch extension              ...   3.42,  6.06, 18.95 au
Average spatial batch extension              ...   0.32,  0.38,  0.57 au

Overlap Fitting                  UseSFitting ... on
Constructing numerical overlap ... done (      0.0 sec)
Inverting numerical overlap    ... done (      0.0 sec)
Obtaining analytic overlap     ... done (      0.0 sec)
Final contraction and storage  ... done (      0.0 sec)

Time for X-Grid setup             =    0.184 sec
--------------
SCF ITERATIONS
--------------
ITER       Energy         Delta-E        Max-DP      RMS-DP      [F,P]     Damp
               ***  Starting incremental Fock matrix formation  ***
                      *** Initiating the SOSCF procedure ***
                      *** Re-Reading the Fockian *** 
                      *** Removing any level shift *** 
ITER      Energy       Delta-E        Grad      Rot      Max-DP    RMS-DP
  0   -227.26573040 -227.2657304015  0.000977  0.000977  0.004902  0.000135
               *** Restarting incremental Fock matrix formation ***
  1   -227.26577544  -0.0000450394  0.000264  0.001497  0.001488  0.000058
  2   -227.26577955  -0.0000041058  0.000231  0.000631  0.000812  0.000036
  3   -227.26577909   0.0000004540  0.000243  0.000299  0.000389  0.000021
  4   -227.26578030  -0.0000012120  0.000041  0.000090  0.000129  0.000005
  5   -227.26578030   0.0000000096  0.000058  0.000060  0.000084  0.000003
  6   -227.26578033  -0.0000000358  0.000008  0.000024  0.000037  0.000001
  7   -227.26578033   0.0000000001  0.000015  0.000016  0.000025  0.000001
                  ***Gradient check signals convergence***
              ***Rediagonalizing the Fockian in SOSCF/NRSCF***

               *****************************************************
               *                     SUCCESS                       *
               *           SCF CONVERGED AFTER   8 CYCLES          *
               *****************************************************

Setting up the final grid:

General Integration Accuracy     IntAcc      ...  4.670
Radial Grid Type                 RadialGrid  ... Gauss-Chebyshev
Angular Grid (max. acc.)         AngularGrid ... Lebedev-302
Angular grid pruning method      GridPruning ... 3 (G Style)
Weight generation scheme         WeightScheme... Becke
Basis function cutoff            BFCut       ...    1.0000e-11
Integration weight cutoff        WCut        ...    1.0000e-14
Grids for H and He will be reduced by one unit

# of grid points (after initial pruning)     ...  51424 (   0.0 sec)
# of grid points (after weights+screening)   ...  48457 (   0.0 sec)
nearest neighbour list constructed           ...    0.0 sec
Grid point re-assignment to atoms done       ...    0.0 sec
Grid point division into batches done        ...    0.2 sec
Reduced shell lists constructed in    0.3 sec

Total number of grid points                  ...    48457
Total number of batches                      ...      763
Average number of points per batch           ...       63
Average number of grid points per atom       ...     4405
Average number of shells per batch           ...    42.53 (88.60%)
Average number of basis functions per batch  ...    87.40 (87.40%)
Average number of large shells per batch     ...    35.68 (83.90%)
Average number of large basis fcns per batch ...    73.25 (83.81%)
Maximum spatial batch extension              ...   3.55,  6.18, 18.12 au
Average spatial batch extension              ...   0.22,  0.24,  0.31 au

Final grid set up in    0.3 sec
Final integration                            ... done (   0.1 sec)
Change in XC energy                          ...     0.000029166
Integrated number of electrons               ...    37.999994070
Previous integrated no of electrons          ...    38.001139132
Old exchange energy                            =     -6.168409097 Eh
New exchange energy                            =     -6.167883838 Eh
Exchange energy change after final integration =      0.000525259 Eh
Total energy after final integration           =   -227.265225910 Eh
Final COS-X integration done in                =     0.553 sec

----------------
TOTAL SCF ENERGY
----------------

Total Energy       :         -227.26522591 Eh           -6184.20120 eV

Components:
Nuclear Repulsion  :          160.71580011 Eh            4373.29926 eV
Electronic Energy  :         -387.98102602 Eh          -10557.50045 eV
One Electron Energy:         -624.61267565 Eh          -16996.57499 eV
Two Electron Energy:          236.63164963 Eh            6439.07454 eV

Virial components:
Potential Energy   :         -453.02513803 Eh          -12327.44072 eV
Kinetic Energy     :          225.75991212 Eh            6143.23952 eV
Virial Ratio       :            2.00666776


DFT components:
N(Alpha)           :       18.999997034903 electrons
N(Beta)            :       18.999997034903 electrons
N(Total)           :       37.999994069805 electrons
E(X)               :      -24.511495051020 Eh       
E(C)               :       -1.489879919923 Eh       
E(XC)              :      -26.001374970942 Eh       

---------------
SCF CONVERGENCE
---------------

  Last Energy change         ...   -3.5720e-09  Tolerance :   1.0000e-08
  Last MAX-Density change    ...    1.4447e-13  Tolerance :   1.0000e-07
  Last RMS-Density change    ...    1.4679e-15  Tolerance :   5.0000e-09
  Last Orbital Gradient      ...    5.0051e-07  Tolerance :   1.0000e-05
  Last Orbital Rotation      ...    9.4417e-07  Tolerance :   1.0000e-05

             **** THE GBW FILE WAS UPDATED (g8raf/frag_26_c00001.gbw) ****
             **** DENSITY FILE WAS UPDATED (g8raf/frag_26_c00001.scfp.tmp) ****
             **** ENERGY FILE WAS UPDATED (g8raf/frag_26_c00001.en.tmp) ****
----------------
ORBITAL ENERGIES
----------------

  NO   OCC          E(Eh)            E(eV) 
   0   2.0000     -14.333681      -390.0393 
   1   2.0000     -14.322356      -389.7311 
   2   2.0000     -10.218498      -278.0595 
   3   2.0000     -10.208282      -277.7815 
   4   2.0000     -10.185117      -277.1511 
   5   2.0000      -0.924843       -25.1663 
   6   2.0000      -0.894641       -24.3444 
   7   2.0000      -0.727443       -19.7947 
   8   2.0000      -0.620609       -16.8876 
   9   2.0000      -0.544096       -14.8056 
  10   2.0000      -0.526016       -14.3136 
  11   2.0000      -0.479256       -13.0412 
  12   2.0000      -0.446003       -12.1364 
  13   2.0000      -0.408856       -11.1255 
  14   2.0000      -0.381885       -10.3916 
  15   2.0000      -0.367321        -9.9953 
  16   2.0000      -0.315122        -8.5749 
  17   2.0000      -0.248942        -6.7741 
  18   2.0000      -0.193393        -5.2625 
  19   0.0000      -0.018424        -0.5013 
  20   0.0000       0.063267         1.7216 
  21   0.0000       0.081935         2.2296 
  22   0.0000       0.089955         2.4478 
  23   0.0000       0.096430         2.6240 
  24   0.0000       0.139388         3.7929 
  25   0.0000       0.145986         3.9725 
  26   0.0000       0.162511         4.4221 
  27   0.0000       0.223028         6.0689 
  28   0.0000       0.291491         7.9319 
  29   0.0000       0.349023         9.4974 
  30   0.0000       0.407377        11.0853 
  31   0.0000       0.451627        12.2894 
  32   0.0000       0.454249        12.3607 
  33   0.0000       0.468348        12.7444 
  34   0.0000       0.498660        13.5692 
  35   0.0000       0.514773        14.0077 
  36   0.0000       0.527096        14.3430 
  37   0.0000       0.557855        15.1800 
  38   0.0000       0.581695        15.8287 
  39   0.0000       0.588480        16.0134 
  40   0.0000       0.600549        16.3418 
  41   0.0000       0.665395        18.1063 
  42   0.0000       0.690424        18.7874 
  43   0.0000       0.705962        19.2102 
  44   0.0000       0.745367        20.2825 
  45   0.0000       0.754931        20.5427 
  46   0.0000       0.789920        21.4948 
  47   0.0000       0.806808        21.9544 
  48   0.0000       0.830239        22.5919 
  49   0.0000       0.894103        24.3298 
  50   0.0000       0.918814        25.0022 
  51   0.0000       0.948334        25.8055 
  52   0.0000       0.969401        26.3788 
  53   0.0000       1.005374        27.3576 
  54   0.0000       1.029213        28.0063 
  55   0.0000       1.046625        28.4801 
  56   0.0000       1.055807        28.7300 
  57   0.0000       1.130800        30.7706 
  58   0.0000       1.183492        32.2045 
  59   0.0000       1.249171        33.9917 
  60   0.0000       1.278003        34.7762 
  61   0.0000       1.369300        37.2605 
  62   0.0000       1.401101        38.1259 
  63   0.0000       1.451692        39.5026 
  64   0.0000       1.461165        39.7603 
  65   0.0000       1.516182        41.2574 
  66   0.0000       1.544450        42.0266 
  67   0.0000       1.573878        42.8274 
  68   0.0000       1.600520        43.5524 
  69   0.0000       1.617772        44.0218 
  70   0.0000       1.661916        45.2230 
  71   0.0000       1.669241        45.4224 
  72   0.0000       1.692130        46.0452 
  73   0.0000       1.700244        46.2660 
  74   0.0000       1.717478        46.7350 
  75   0.0000       1.821399        49.5628 
  76   0.0000       1.824499        49.6471 
  77   0.0000       1.842937        50.1489 
  78   0.0000       1.908484        51.9325 
  79   0.0000       1.933944        52.6253 
  80   0.0000       1.935674        52.6724 
  81   0.0000       2.016894        54.8825 
  82   0.0000       2.086807        56.7849 
  83   0.0000       2.120801        57.7099 
  84   0.0000       2.250626        61.2426 
  85   0.0000       2.260844        61.5207 
  86   0.0000       2.315119        62.9976 
  87   0.0000       2.330627        63.4196 
  88   0.0000       2.379470        64.7487 
  89   0.0000       2.414093        65.6908 
  90   0.0000       2.434509        66.2463 
  91   0.0000       2.519649        68.5631 
  92   0.0000       2.599161        70.7268 
  93   0.0000       2.619426        71.2782 
  94   0.0000       2.672296        72.7169 
  95   0.0000       2.737170        74.4822 
  96   0.0000       2.847936        77.4963 
  97   0.0000       2.983152        81.1757 
  98   0.0000       3.037143        82.6449 
  99   0.0000       3.302975        89.8785 
-------
TIMINGS
-------

Total SCF time: 0 days 0 hours 0 min 5 sec 

Total time                  ....       5.633 sec
Sum of individual times     ....       5.601 sec  ( 99.4%)

Fock matrix formation       ....       4.970 sec  ( 88.2%)
  Split-RI-J                ....       1.348 sec  ( 27.1% of F)
  Chain of spheres X        ....       3.146 sec  ( 63.3% of F)
  COS-X 1 center corr.      ....       0.000 sec  (  0.0% of F)
  XC integration            ....       0.451 sec  (  9.1% of F)
    Basis function eval.    ....       0.149 sec  ( 33.0% of XC)
    Density eval.           ....       0.057 sec  ( 12.6% of XC)
    XC-Functional eval.     ....       0.024 sec  (  5.2% of XC)
    XC-Potential eval.      ....       0.110 sec  ( 24.4% of XC)
Diagonalization             ....       0.002 sec  (  0.0%)
Density matrix formation    ....       0.018 sec  (  0.3%)
Population analysis         ....       0.000 sec  (  0.0%)
Initial guess               ....       0.002 sec  (  0.0%)
Orbital Transformation      ....       0.000 sec  (  0.0%)
Orbital Orthonormalization  ....       0.001 sec  (  0.0%)
DIIS solution               ....       0.000 sec  (  0.0%)
SOSCF solution              ....       0.057 sec  (  1.0%)
Grid generation             ....       0.549 sec  (  9.8%)


-------------------------------------------------------------------------------
                          DFT DISPERSION CORRECTION                            
                                                                               
                              DFTD3 V3.1  Rev 1                                
                          USING Becke-Johnson damping                          
-------------------------------------------------------------------------------
The B3LYP functional is recognized
Active option DFTDOPT                   ...         4   

molecular C6(AA) [au] = 1155.598467 


            DFT-D V3
 parameters
 s6 scaling factor         :     1.0000 
 a1 scaling factor         :     0.3981 
 s8 scaling factor         :     1.9889 
 a2 scaling factor         :     4.4211 
 ad hoc parameters k1-k3   :    16.0000     1.3333    -4.0000 

 Edisp/kcal,au: -7.959803449889  -0.012684752868 
 E6   /kcal   :  -3.861091116 
 E8   /kcal   :  -4.098712334 
 % E8         :  51.492632447 

-------------------------   ----------------
Dispersion correction           -0.012684753
-------------------------   ----------------


-------------------------   --------------------
FINAL SINGLE POINT ENERGY      -227.277910662514
-------------------------   --------------------

                                *** OPTIMIZATION RUN DONE ***

                            ***************************************
                            *     ORCA property calculations      *
                            ***************************************

                                    ---------------------
                                    Active property flags
                                    ---------------------
   (+) Dipole Moment


------------------------------------------------------------------------------
                       ORCA ELECTRIC PROPERTIES CALCULATION
------------------------------------------------------------------------------

Dipole Moment Calculation                       ... on
Quadrupole Moment Calculation                   ... off
Polarizability Calculation                      ... off
GBWName                                         ... g8raf/frag_26_c00001.gbw
Electron density file                           ... g8raf/frag_26_c00001.scfp.tmp
The origin for moment calculation is the CENTER OF MASS  = ( 5.593824, -2.010764  0.065023)

-------------
DIPOLE MOMENT
-------------
                                X             Y             Z
Electronic contribution:     -0.54496      -0.65174      -0.07930
Nuclear contribution   :      0.12209       0.69170       0.41846
                        -----------------------------------------
Total Dipole Moment    :     -0.42287       0.03996       0.33915
                        -----------------------------------------
Magnitude (a.u.)       :      0.54354
Magnitude (Debye)      :      1.38158


Timings for individual modules:

Sum of individual times         ...       55.623 sec (=   0.927 min)
GTO integral calculation        ...        3.742 sec (=   0.062 min)   6.7 %
SCF iterations                  ...       40.878 sec (=   0.681 min)  73.5 %
SCF Gradient evaluation         ...       10.759 sec (=   0.179 min)  19.3 %
Geometry relaxation             ...        0.243 sec (=   0.004 min)   0.4 %
                             ****ORCA TERMINATED NORMALLY****
TOTAL RUN TIME: 0 days 0 hours 0 minutes 56 seconds 948 msec
