17
Lattice="14.0 0.0 0.0 0.0 14.0 0.0 0.0 0.0 14.0" Properties=species:S:1:pos:R:3:forces:R:3 energy=-67.22821459 pbe340=-2.4705913373834942 pbc="T T T"
H       4.76499000       6.48169000       9.23501000       0.01551200       0.00325400      -0.01551200 
H       6.48169000       4.76499000       9.23502000       0.00325400       0.01551200      -0.01551200 
H       4.76499000       4.76498000       7.51831000       0.01551200       0.01551200      -0.00325400 
H       7.51831000       9.23501000       9.23501000      -0.00325400      -0.01551200      -0.01551200 
H       9.23501000       9.23502000       7.51831000      -0.01551200      -0.01551200      -0.00325400 
H       9.23502000       7.51831000       9.23501000      -0.01551200      -0.00325400      -0.01551200 
H       7.51831000       4.76499000       4.76499000      -0.00325400       0.01551200       0.01551200 
H       9.23501000       4.76498000       6.48169000      -0.01551200       0.01551200       0.00325400 
H       9.23501000       6.48169000       4.76499000      -0.01551200       0.00325400       0.01551200 
H       4.76499000       9.23501000       6.48169000       0.01551200      -0.01551200       0.00325400 
H       4.76498000       7.51831000       4.76499000       0.01551200      -0.00325400       0.01551200 
H       6.48169000       9.23501000       4.76498000       0.00325400      -0.01551200       0.01551200 
Si       5.64106000       5.64106000       8.35894000      -0.00613900      -0.00613900       0.00613900 
Si       7.00000000       7.00000000       7.00000000      -0.00000000       0.00000000      -0.00000000 
Si       8.35894000       8.35894000       8.35894000       0.00613900       0.00613900       0.00613900 
Si       8.35894000       5.64106000       5.64106000       0.00613900      -0.00613900      -0.00613900 
Si       5.64106000       8.35894000       5.64106000      -0.00613900       0.00613900      -0.00613900 
