53
Lattice="18.0 0.0 0.0 0.0 18.0 0.0 0.0 0.0 18.0" Properties=species:S:1:pos:R:3:forces:R:3 energy=-212.21386516 pbe340=-7.7987157644218055 pbc="T T T"
H       4.87646000       7.79420000       9.59593000       0.00135700      -0.02638500      -0.02412700 
H       6.23318000       5.84776000      10.13730000      -0.01626900       0.01097700      -0.02518200 
H       4.95183000       5.90316000       8.07030000      -0.02995600      -0.02778100       0.00921500 
H       7.72314000       5.25350000       5.76107000       0.01270100      -0.03052000      -0.01417900 
H       8.80638000       4.69699000       7.86946000      -0.00287700       0.01279000      -0.02972300 
H       9.94755000       6.10495000       6.25565000      -0.01587800       0.00432200      -0.00852000 
H       5.39914000       9.66330000       6.51526000       0.01036800      -0.01390700      -0.01449700 
H       5.88932000       7.72247000       5.13174000      -0.02535000       0.01359400      -0.02110800 
H       7.44343000       9.59151000       5.21019000      -0.00964700      -0.02347900      -0.00684100 
H       8.04817000       6.31620000      12.18955000       0.02761200      -0.00828000       0.00122300 
H      10.22805000       5.27343000      12.46036000      -0.00670400      -0.03332500       0.02355400 
H       8.89353000       4.80671000      10.47999000       0.01108500       0.01139100       0.03097300 
H      11.59774000       5.44936000       8.38909000       0.01552900       0.00870500       0.01166300 
H      13.08933000       6.02946000      10.22134000       0.02225700      -0.02431400      -0.01141800 
H      12.86899000       7.51582000       8.30917000       0.00674300      -0.01088200       0.02631300 
H      10.50360000       9.02923000      13.30113000       0.02933100      -0.00467400      -0.01610600 
H      11.96731000      10.15450000      11.72788000       0.00791500      -0.01350800      -0.00448800 
H      12.59823000       7.98512000      12.63008000       0.01385000       0.01457600       0.02844600 
H       6.05147000      10.41378000      13.11750000      -0.02485400      -0.00620700       0.03251900 
H       7.90650000       8.84900000      13.26336000      -0.02547600       0.02342500      -0.00331900 
H       5.90806000       8.25207000      12.01074000       0.01338000       0.02618400       0.01626700 
H       7.95464000      13.22022000      11.90358000       0.01350500       0.02084200       0.02180200 
H       9.79680000      12.92715000      10.34340000      -0.02317900       0.00573800       0.01098700 
H       9.83193000      11.78600000      12.48464000      -0.01557300       0.01393900      -0.00989500 
H       5.37660000      12.50744000      10.24024000      -0.02869700       0.01425300      -0.01235400 
H       4.76817000      10.38019000       9.22508000       0.01292500       0.02757800       0.00585600 
H       6.20488000      11.92631000       8.02768000       0.00204000       0.00532800       0.01803100 
H       8.15326000      11.93293000       5.86388000       0.03076200       0.01594200       0.01814700 
H      10.30679000      13.04411000       6.07461000      -0.00542000       0.02533700      -0.01580000 
H       8.72302000      13.09797000       7.91691000       0.02168000      -0.00029600      -0.01330600 
H      12.08601000      12.15379000       9.61008000       0.01379600      -0.02130900      -0.02932800 
H      13.13913000      11.70327000       7.46412000       0.02626400       0.01474800       0.00412600 
H      13.13418000      10.00227000       9.19929000      -0.00105200       0.01094100      -0.02174600 
H       9.88202000       8.56742000       4.93148000       0.01302300       0.02027200      -0.00001700 
H      12.02428000       8.10039000       5.97502000      -0.02041200       0.03074200      -0.01572700 
H      11.68072000      10.19465000       4.78544000       0.01394700      -0.00689500      -0.02700200 
Si       7.72614000      10.43626000      10.47106000       0.02038300      -0.01462000      -0.02745100 
Si       5.75576000       6.72786000       9.02558000       0.00154600       0.00058000       0.00889200 
Si       7.54227000       7.64182000       7.79576000       0.02879300       0.02418400       0.01124200 
Si      10.40332000       7.63980000      10.40909000      -0.01642200       0.02863400      -0.02213300 
Si       8.61506000       5.77136000       6.84495000      -0.01318500      -0.01404100       0.01451700 
Si       8.99880000       9.00475000       9.07514000      -0.00954200      -0.01359600       0.01219100 
Si      10.33449000      10.31362000       7.61330000      -0.01732400      -0.01628500       0.01854900 
Si       6.49043000       8.76983000       6.01501000      -0.01744300      -0.00786300       0.00432500 
Si       5.86581000      11.38551000       9.37980000      -0.01174000      -0.01216500       0.01005100 
Si       8.94971000      12.24130000      11.36486000      -0.00755500      -0.00396600       0.01711000 
Si       6.82813000       9.37525000      12.37071000       0.00288200      -0.01318300       0.00101600 
Si       9.27670000       5.86362000      11.46749000      -0.00298800      -0.00601400      -0.01303700 
Si      11.44945000       8.82053000      12.15996000      -0.01537000      -0.01377500       0.01750000 
Si      12.13274000       6.57939000       9.21085000      -0.00493300      -0.01131800       0.00866800 
Si       9.26816000      12.25524000       6.80855000      -0.01331800      -0.00385800      -0.01168900 
Si      11.03072000       9.17709000       5.66964000       0.01128500      -0.01516000       0.00321000 
Si      12.33657000      11.10234000       8.57525000      -0.00380000       0.01258200       0.01260200 
