54
Lattice="18.0 0.0 0.0 0.0 19.0 0.0 0.0 0.0 18.0" Properties=species:S:1:pos:R:3:forces:R:3 energy=-217.80109588 pbe340=-8.004042707893069 pbc="T T T"
H       5.85024000      13.52106000      10.41541000       0.00784600       0.01864100       0.02874000 
H       7.58545000      13.52937000      12.13440000      -0.02900000       0.01859100      -0.00717500 
H       5.97402000      11.71535000      12.03431000       0.01832500      -0.00335400      -0.01838400 
H       4.39550000      10.09910000      10.13656000      -0.01514800      -0.01498300      -0.01912100 
H       5.78574000       8.12715000      10.41057000       0.00049900       0.03260400      -0.03316300 
H       4.39746000       8.35747000       8.43113000      -0.01445100       0.01940800       0.01454100 
H       5.82726000       8.04955000       5.00167000       0.00802800      -0.02830700      -0.01899100 
H       5.95318000       6.44644000       6.82147000       0.01825900       0.01845300       0.00282500 
H       7.55614000       6.32418000       5.00129000      -0.02852500       0.00785900      -0.01916700 
H      11.21865000       6.48008000      12.03754000      -0.00396000       0.01818500      -0.01835400 
H      13.03116000       8.09333000      12.13587000       0.01801200      -0.02872100      -0.00751600 
H      13.02459000       6.35652000      10.41853000       0.01808900       0.00848900       0.02882300 
H       7.89960000      10.12618000      13.60259000       0.01894000      -0.01510800       0.01476900 
H       9.62749000       8.40655000      13.60596000      -0.01499300       0.01928300       0.01514700 
H       7.63927000       8.13375000      12.23926000       0.03274800       0.03286800      -0.00196500 
H      10.44108000      12.67346000      12.98714000       0.02874800      -0.00784500       0.01903100 
H      12.04058000      12.54684000      11.16423000      -0.01826400      -0.01866600      -0.00299100 
H      12.16966000      10.94769000      12.98720000      -0.00808300       0.02836500       0.01889300 
H       7.86875000       4.89274000       8.43113000       0.01935300      -0.01458900       0.01459000 
H       7.62659000       6.28412000      10.40677000       0.03323500       0.00103100      -0.03343600 
H       9.60418000       4.90002000      10.14289000      -0.01453100      -0.01534500      -0.01918600 
H      12.21042000      10.87234000       7.59602000      -0.00081500      -0.03294800       0.03282900 
H      13.58968000       8.88994000       7.85027000       0.01485500       0.01502900       0.01952400 
H      13.60456000      10.61897000       9.56841000       0.01425700      -0.01907800      -0.01470700 
H      10.40317000       5.45662000       5.86594000       0.02905600      -0.01840700       0.00728900 
H      12.14079000       5.47021000       7.58243000      -0.00763200      -0.01898100      -0.02847600 
H      12.01390000       7.27171000       5.95911000      -0.01856800       0.00293800       0.01819000 
H       8.38318000      14.08803000       7.84751000       0.01465500       0.01563300       0.01968600 
H      10.36847000      12.71266000       7.59598000      -0.03347300      -0.00092900       0.03333900 
H      10.11049000      14.10723000       9.56740000      -0.01850400       0.01454700      -0.01465700 
H       4.96618000      12.63447000       7.57940000      -0.01841600      -0.00827400      -0.02857500 
H       4.95531000      10.89578000       5.86388000      -0.01806000       0.02906900       0.00727800 
H       6.76826000      12.50880000       5.95627000       0.00361600      -0.01831800       0.01859300 
H       8.37221000      10.59427000       4.39424000       0.01502100      -0.01924800      -0.01518500 
H      10.09784000       8.87235000       4.39561000      -0.01873300       0.01504700      -0.01500000 
H      10.35835000      10.86032000       5.76530000      -0.03265200      -0.03273700       0.00186900 
Si       6.78554000      12.66484000      11.21074000       0.00507700      -0.00553300      -0.00522600 
Si       5.24711000       9.10373000       9.41206000       0.01410400      -0.01315500       0.01377500 
Si       6.95284000      10.24276000       8.25140000      -0.01768100      -0.00225100       0.00298400 
Si       6.76330000       7.25842000       5.86096000       0.00542000       0.00512200       0.00488800 
Si      12.16738000       7.29155000      11.21312000      -0.00538700       0.00604500      -0.00542100 
Si       8.62950000       9.13001000      12.75648000      -0.01455300      -0.01454200      -0.01310000 
Si       9.76040000      10.26256000      11.02667000      -0.00230000      -0.00185100       0.01854000 
Si      11.23206000      11.73713000      12.12805000      -0.00541800      -0.00533100      -0.00487600 
Si       8.60869000       5.74684000       9.41297000      -0.01393200       0.01413000       0.01429700 
Si       9.74605000       7.45398000       8.25278000      -0.00209900      -0.01833500       0.00210100 
Si      11.03862000       8.74830000       9.74442000       0.01804900       0.00192200      -0.00309500 
Si      12.74677000       9.88508000       8.58519000      -0.01399100       0.01378200      -0.01344800 
Si      11.20400000       6.32395000       6.78621000      -0.00524000       0.00523900       0.00525100 
Si       8.23273000       8.73083000       6.96813000       0.00212900       0.00194600      -0.01789000 
Si       8.24470000      11.53778000       9.74307000       0.00151200       0.01839300      -0.00256000 
Si       9.37921000      13.24751000       8.58397000       0.01442900      -0.01413100      -0.01433000 
Si       5.82130000      11.69843000       6.78381000       0.00597000      -0.00582300       0.00503500 
Si       9.36771000       9.86696000       5.24333000       0.01417400       0.01417100       0.01316500 
