98
Lattice="17.57 0.0 0.0 8.785 15.216066 0.0 0.0 0.0 12.0" Properties=species:S:1:pos:R:3:forces:R:3 pbe=-31.543399508256375 energy=-858.33962054 stress="0.020478946936335174 -0.0 -0.0 -0.0 0.020478946936335174 -0.0 -0.0 -0.0 0.025635825330849817" magmom=1.0000013 pbc="T T T"
B       1.25417000       0.72410000       6.00000000       0.00051800       0.00029900      -0.00000000 
B       2.50920000       2.89876000       6.00000000       0.00052300      -0.00030200      -0.00000000 
B       3.76500000       5.07298000       6.00000000      -0.00000000      -0.00059800      -0.00000000 
B       5.02293000       7.24635000       6.00000000      -0.00237900       0.00016300      -0.00000000 
B       6.27766000       9.41896000       6.00000000      -0.00106600       0.00040600      -0.00000000 
B       7.53177000      11.59115000       6.00000000      -0.00088500       0.00072000      -0.00000000 
B       8.78594000      13.76408000       6.00000000      -0.00133100       0.00197900      -0.00000000 
B       3.76500000       0.72365000       6.00000000       0.00000000       0.00060400      -0.00000000 
B       5.02080000       2.89876000       6.00000000      -0.00052300      -0.00030200      -0.00000000 
B       6.27696000       5.07335000       6.00000000      -0.00118900      -0.00107400      -0.00000000 
B       7.54016000       7.24640000       6.00000000      -0.01533600      -0.00300700      -0.00000000 
B       8.78932000       9.41698000       6.00000000      -0.01108000       0.00639700      -0.00000000 
B      10.04451000      11.58407000       6.00000000      -0.00506400       0.01478500       0.00000000 
B      11.29483000      13.76456000       6.00000000       0.00033600       0.00156700      -0.00000000 
B       6.27583000       0.72410000       6.00000000      -0.00051800       0.00029900      -0.00000000 
B       7.53213000       2.89933000       6.00000000      -0.00152500      -0.00049300       0.00000000 
C       8.78767000       5.07356000       6.00000000      -0.00246000      -0.00142000      -0.00000000 
B      10.05621000       7.24230000       6.00000000       0.00012000       0.00412500      -0.00000000 
B      11.30609000       9.40715000       6.00000000      -0.00351200      -0.00216700       0.00000000 
B      12.55000000      11.59011000       6.00000000       0.00000000       0.00284000      -0.00000000 
B      13.80517000      13.76456000       6.00000000      -0.00033600       0.00156700      -0.00000000 
B       8.78699000       0.72681000       6.00000000      -0.00104800      -0.00214200      -0.00000000 
B      10.04565000       2.90677000       6.00000000      -0.01027200      -0.01177800       0.00000000 
B      11.30012000       5.08779000       6.00000000       0.00363300      -0.00195800      -0.00000000 
B      13.79391000       9.40715000       6.00000000       0.00351200      -0.00216700      -0.00000000 
B      15.05549000      11.58407000       6.00000000       0.00506400       0.01478500       0.00000000 
B      16.31406000      13.76408000       6.00000000       0.00133100       0.00197900      -0.00000000 
B      11.29589000       0.72713000       6.00000000      -0.00018200      -0.00112600      -0.00000000 
B      12.55000000       2.90328000       6.00000000      -0.00000000      -0.01279400      -0.00000000 
B      13.79988000       5.08779000       6.00000000      -0.00363300      -0.00195800       0.00000000 
B      15.04379000       7.24230000       6.00000000      -0.00012000       0.00412500      -0.00000000 
B      16.31068000       9.41698000       6.00000000       0.01108000       0.00639700      -0.00000000 
B      17.56823000      11.59115000       6.00000000       0.00088500       0.00072000      -0.00000000 
B      18.82478000      13.76704000       6.00000000       0.00078200      -0.00045200      -0.00000000 
B      13.80411000       0.72713000       6.00000000       0.00018200      -0.00112600      -0.00000000 
B      15.05435000       2.90677000       6.00000000       0.01027200      -0.01177800       0.00000000 
B      16.31233000       5.07356000       6.00000000       0.00246000      -0.00142000      -0.00000000 
B      17.55984000       7.24640000       6.00000000       0.01533600      -0.00300700      -0.00000000 
B      18.82234000       9.41896000       6.00000000       0.00106600       0.00040600      -0.00000000 
B      20.07935000      11.59282000       6.00000000       0.00009800       0.00005600      -0.00000000 
B      21.33500000      13.76766000       6.00000000      -0.00000000      -0.00011300      -0.00000000 
B      16.31301000       0.72681000       6.00000000       0.00104800      -0.00214200      -0.00000000 
B      17.56787000       2.89933000       6.00000000       0.00152500      -0.00049300      -0.00000000 
B      18.82304000       5.07335000       6.00000000       0.00118900      -0.00107400      -0.00000000 
B      20.07707000       7.24635000       6.00000000       0.00237900       0.00016300      -0.00000000 
B      21.33500000       9.41922000       6.00000000      -0.00000000       0.00090400      -0.00000000 
B      22.59065000      11.59282000       6.00000000      -0.00009800       0.00005600      -0.00000000 
Au      23.84522000      13.76704000       6.00000000      -0.00078200      -0.00045200      -0.00000000 
B      12.55000000       7.24575000       6.00000000      -0.00000000       0.00000000      -0.00000000 
N       2.50950000       1.44886000       6.00000000       0.00017200       0.00010000      -0.00000000 
N       3.76500000       3.62345000       6.00000000      -0.00000000      -0.00019900      -0.00000000 
N       5.02109000       5.79741000       6.00000000       0.00142100      -0.00080900      -0.00000000 
N       6.28166000       7.96987000       6.00000000      -0.00117100      -0.00155900      -0.00000000 
N       7.53359000      10.14197000       6.00000000       0.00418200      -0.00241500      -0.00000000 
N       8.78872000      12.31222000       6.00000000       0.00076400       0.00179300      -0.00000000 
N      10.03984000      14.49014000       6.00000000       0.00141200      -0.00082600      -0.00000000 
N       5.02050000       1.44886000       6.00000000      -0.00017200       0.00010000      -0.00000000 
N       6.27626000       3.62360000       6.00000000       0.00150300       0.00086800      -0.00000000 
N       7.53256000       5.79788000       6.00000000       0.00843600       0.00002000      -0.00000000 
N       8.80152000       7.97010000       6.00000000      -0.00588500       0.00326100      -0.00000000 
N      10.04845000      10.12985000       6.00000000      -0.00576700       0.00346600      -0.00000000 
N      11.29517000      12.31491000       6.00000000       0.00420000      -0.00731600      -0.00000000 
N      12.55000000      14.49004000       6.00000000      -0.00000000      -0.00173500      -0.00000000 
N       7.53125000       1.44969000       6.00000000       0.00001000       0.00163600      -0.00000000 
N       8.78739000       3.62444000       6.00000000       0.00423500       0.00729500      -0.00000000 
N      10.04075000       5.79703000       6.00000000      -0.00187900      -0.00108500      -0.00000000 
N      11.33085000       7.94962000       6.00000000       0.00004300      -0.00002500      -0.00000000 
N      12.55000000      10.14318000       6.00000000      -0.00000000       0.00217000      -0.00000000 
N      13.80483000      12.31491000       6.00000000      -0.00420000      -0.00731600      -0.00000000 
N      15.06016000      14.49014000       6.00000000      -0.00141200      -0.00082600      -0.00000000 
N      10.04294000       1.45514000       6.00000000      -0.00193500      -0.00023500      -0.00000000 
N      11.30307000       3.63729000       6.00000000      -0.00011900      -0.00672800      -0.00000000 
N      12.55000000       5.83799000       6.00000000      -0.00000000       0.00005000      -0.00000000 
N      13.76915000       7.94962000       6.00000000      -0.00004300      -0.00002500      -0.00000000 
N      15.05155000      10.12985000       6.00000000       0.00576700       0.00346600      -0.00000000 
N      16.31128000      12.31222000       6.00000000      -0.00076400       0.00179300      -0.00000000 
N      17.56974000      14.49164000       6.00000000      -0.00002200       0.00001300      -0.00000000 
N      12.55000000       1.45330000       6.00000000      -0.00000000       0.00482900      -0.00000000 
N      13.79693000       3.63729000       6.00000000       0.00011900      -0.00672800      -0.00000000 
N      15.05925000       5.79703000       6.00000000       0.00187900      -0.00108500      -0.00000000 
N      16.29848000       7.97010000       6.00000000       0.00588500       0.00326100      -0.00000000 
N      17.56641000      10.14197000       6.00000000      -0.00418200      -0.00241500      -0.00000000 
N      18.82366000      12.31714000       6.00000000      -0.00166200      -0.00100600      -0.00000000 
N      20.07988000      14.49297000       6.00000000       0.00004100       0.00194300      -0.00000000 
N      15.05706000       1.45514000       6.00000000       0.00193500      -0.00023500      -0.00000000 
N      16.31261000       3.62444000       6.00000000      -0.00423500       0.00729500      -0.00000000 
N      17.56744000       5.79788000       6.00000000      -0.00843600       0.00002000      -0.00000000 
N      18.81834000       7.96987000       6.00000000       0.00117100      -0.00155900      -0.00000000 
N      20.07878000      10.14320000       6.00000000      -0.00170300      -0.00093600      -0.00000000 
N      21.33500000      12.31777000       6.00000000      -0.00000000       0.00000000      -0.00000000 
N      22.59012000      14.49297000       6.00000000      -0.00004100       0.00194300      -0.00000000 
N      17.56875000       1.44969000       6.00000000      -0.00001000       0.00163600      -0.00000000 
N      18.82374000       3.62360000       6.00000000      -0.00150300       0.00086800      -0.00000000 
N      20.07891000       5.79741000       6.00000000      -0.00142100      -0.00080900      -0.00000000 
N      21.33500000       7.97002000       6.00000000      -0.00000000      -0.00002500      -0.00000000 
N      22.59122000      10.14320000       6.00000000       0.00170300      -0.00093600      -0.00000000 
N      23.84634000      12.31714000       6.00000000       0.00166200      -0.00100600      -0.00000000 
N      25.10026000      14.49164000       6.00000000       0.00002200       0.00001300      -0.00000000 
