98
Lattice="17.57 0.0 0.0 8.785 15.216066 0.0 0.0 0.0 12.0" Properties=species:S:1:pos:R:3:forces:R:3 pbe340=-31.009374645392448 energy=-843.80806385 stress="0.002942209952886613 0.0 -0.0 0.0 0.002942209952886613 0.0 -0.0 0.0 0.025514914816063203" magmom=1.9995889 pbc="T T T"
B       1.26173000       0.72846000       6.00000000      -0.00329000      -0.00189900      -0.00000000 
B       2.51575000       2.89498000       6.00000000       0.00190400      -0.00109900      -0.00000000 
B       3.76500000       5.06425000       6.00000000       0.00000000       0.00379800      -0.00000000 
B       4.99719000       7.24011000       6.00000000      -0.00124000       0.00609400       0.00000000 
B       6.24494000       9.42767000       6.00000000      -0.00290900       0.00005600      -0.00000000 
B       7.50787000      11.61513000       6.00000000      -0.00150200       0.00249100      -0.00000000 
B       8.77848000      13.78949000       6.00000000      -0.00589800      -0.00197300      -0.00000000 
B       3.76500000       0.73122000       6.00000000      -0.00000000       0.00219800      -0.00000000 
B       5.01425000       2.89498000       6.00000000      -0.00190400      -0.00109900      -0.00000000 
B       6.25817000       5.06185000       6.00000000       0.00018100       0.00366400      -0.00000000 
B       7.45045000       7.24109000       6.00000000      -0.00156500       0.01123200      -0.00000000 
B       8.72285000       9.45535000       6.00000000       0.00439500      -0.00253700      -0.00000000 
B      10.00425000      11.66442000       6.00000000      -0.01051000      -0.00426000      -0.00000000 
B      11.29540000      13.78658000       6.00000000      -0.00308300      -0.00198900      -0.00000000 
B       6.26827000       0.72846000       6.00000000       0.00329000      -0.00189900      -0.00000000 
B       7.51277000       2.88881000       6.00000000       0.00326400      -0.00167500       0.00000000 
B       8.75719000       5.05597000       6.00000000       0.00113600       0.00065600      -0.00000000 
B       9.88105000       7.25698000       6.00000000      -0.01320400      -0.00586700       0.00000000 
B      11.20580000       9.55151000       6.00000000      -0.00152100       0.01436900      -0.00000000 
B      12.55000000      11.62530000       6.00000000      -0.00000000      -0.00131200      -0.00000000 
B      13.80460000      13.78658000       6.00000000       0.00308300      -0.00198900      -0.00000000 
B       8.76872000       0.70764000       6.00000000       0.00465800      -0.00412100      -0.00000000 
B       9.99619000       2.83173000       6.00000000       0.00894400      -0.00697100      -0.00000000 
B      11.22525000       4.92875000       6.00000000      -0.01168300      -0.00850200       0.00000000 
B      13.89420000       9.55151000       6.00000000       0.00152100       0.01436900      -0.00000000 
B      15.09575000      11.66442000       6.00000000       0.01051000      -0.00426000      -0.00000000 
B      16.32152000      13.78949000       6.00000000       0.00589800      -0.00197300      -0.00000000 
B      11.28707000       0.69444000       6.00000000      -0.00140600      -0.00254700       0.00000000 
B      12.55000000       2.82653000       6.00000000      -0.00000000       0.00507500      -0.00000000 
B      13.87475000       4.92875000       6.00000000       0.01168300      -0.00850200      -0.00000000 
B      15.21895000       7.25698000       6.00000000       0.01320400      -0.00586700      -0.00000000 
B      16.37715000       9.45535000       6.00000000      -0.00439500      -0.00253700      -0.00000000 
B      17.59213000      11.61513000       6.00000000       0.00150200       0.00249100      -0.00000000 
B      18.82707000      13.76572000       6.00000000      -0.00396100       0.00228700      -0.00000000 
B      13.81293000       0.69444000       6.00000000       0.00140600      -0.00254700      -0.00000000 
B      15.10381000       2.83173000       6.00000000      -0.00894400      -0.00697100      -0.00000000 
B      16.34281000       5.05597000       6.00000000      -0.00113600       0.00065600      -0.00000000 
B      17.64955000       7.24109000       6.00000000       0.00156500       0.01123200      -0.00000000 
B      18.85506000       9.42767000       6.00000000       0.00290900       0.00005600      -0.00000000 
B      20.08744000      11.59749000       6.00000000       0.00043400       0.00025100      -0.00000000 
B      21.33500000      13.75832000       6.00000000      -0.00000000      -0.00050100      -0.00000000 
B      16.33128000       0.70764000       6.00000000      -0.00465800      -0.00412100      -0.00000000 
B      17.58723000       2.88881000       6.00000000      -0.00326400      -0.00167500       0.00000000 
B      18.84183000       5.06185000       6.00000000      -0.00018100       0.00366400      -0.00000000 
B      20.10281000       7.24011000       6.00000000       0.00124000       0.00609400       0.00000000 
B      21.33500000       9.42186000       6.00000000      -0.00000000      -0.00457400      -0.00000000 
B      22.58256000      11.59749000       6.00000000      -0.00043400       0.00025100      -0.00000000 
B      23.84293000      13.76572000       6.00000000       0.00396100       0.00228700      -0.00000000 
N       2.51346000       1.45115000       6.00000000      -0.00531200      -0.00306700      -0.00000000 
N       3.76500000       3.61887000       6.00000000      -0.00000000       0.00613400      -0.00000000 
N       5.01028000       5.79167000       6.00000000       0.00029000       0.00561100      -0.00000000 
N       6.22497000       7.97802000       6.00000000      -0.00284600      -0.00423700      -0.00000000 
N       7.48357000      10.17085000       6.00000000       0.00268500      -0.00155000      -0.00000000 
N       8.75332000      12.35724000       6.00000000       0.00224600       0.00458300      -0.00000000 
N      10.03941000      14.50238000       6.00000000      -0.00471400      -0.00305600      -0.00000000 
N       5.01654000       1.45115000       6.00000000       0.00531200      -0.00306700      -0.00000000 
N       6.26343000       3.61619000       6.00000000       0.00121300       0.00070000      -0.00000000 
N       7.50273000       5.78881000       6.00000000       0.00026000       0.00502300      -0.00000000 
N       8.65561000       7.99563000       6.00000000      -0.00858600      -0.00502500      -0.00000000 
N       9.95339000      10.24345000       6.00000000       0.00005900       0.00994800      -0.00000000 
N      11.28810000      12.34528000       6.00000000      -0.00422000      -0.00273600      -0.00000000 
N      12.55000000      14.50485000       6.00000000      -0.00000000      -0.00140100      -0.00000000 
N       7.52087000       1.44319000       6.00000000       0.00500400      -0.00255400      -0.00000000 
N       8.76462000       3.60315000       6.00000000       0.00448000      -0.00228600      -0.00000000 
N      10.01311000       5.78107000       6.00000000       0.00155500       0.00089800      -0.00000000 
N      10.92061000       8.18647000       6.00000000      -0.00558400       0.00322400      -0.00000000 
N      12.55000000      10.17509000       6.00000000      -0.00000000      -0.00179600      -0.00000000 
N      13.81190000      12.34528000       6.00000000       0.00422000      -0.00273600      -0.00000000 
N      15.06059000      14.50238000       6.00000000       0.00471400      -0.00305600      -0.00000000 
N      10.02166000       1.40198000       6.00000000      -0.00509200      -0.00034600      -0.00000000 
N      11.25222000       3.49816000       6.00000000      -0.00864400      -0.00492300      -0.00000000 
N      12.55000000       5.36429000       6.00000000      -0.00000000      -0.00644800      -0.00000000 
N      14.17939000       8.18647000       6.00000000       0.00558400       0.00322400      -0.00000000 
N      15.14661000      10.24345000       6.00000000      -0.00005900       0.00994800      -0.00000000 
N      16.34668000      12.35724000       6.00000000      -0.00224600       0.00458300      -0.00000000 
N      17.57300000      14.48976000       6.00000000      -0.00669800       0.00386700      -0.00000000 
N      12.55000000       1.39553000       6.00000000      -0.00000000       0.00310000      -0.00000000 
N      13.84778000       3.49816000       6.00000000       0.00864400      -0.00492300      -0.00000000 
N      15.08689000       5.78107000       6.00000000      -0.00155500       0.00089800      -0.00000000 
N      16.44439000       7.99563000       6.00000000       0.00858600      -0.00502500      -0.00000000 
N      17.61643000      10.17085000       6.00000000      -0.00268500      -0.00155000      -0.00000000 
N      18.84014000      12.32586000       6.00000000      -0.00224700       0.00358600      -0.00000000 
N      20.08056000      14.47433000       6.00000000      -0.00422900       0.00015300      -0.00000000 
N      15.07834000       1.40198000       6.00000000       0.00509200      -0.00034600      -0.00000000 
N      16.33538000       3.60315000       6.00000000      -0.00448000      -0.00228600      -0.00000000 
N      17.59727000       5.78881000       6.00000000      -0.00026000       0.00502300      -0.00000000 
N      18.87503000       7.97802000       6.00000000       0.00284600      -0.00423700      -0.00000000 
N      20.09458000      10.15311000       6.00000000       0.00198200      -0.00373900      -0.00000000 
N      21.33500000      12.31777000       6.00000000      -0.00000000      -0.00000000      -0.00000000 
N      22.58944000      14.47433000       6.00000000       0.00422900       0.00015300      -0.00000000 
N      17.57913000       1.44319000       6.00000000      -0.00500400      -0.00255400      -0.00000000 
N      18.83657000       3.61619000       6.00000000      -0.00121300       0.00070000      -0.00000000 
N      20.08972000       5.79167000       6.00000000      -0.00029000       0.00561100      -0.00000000 
N      21.33500000       7.97379000       6.00000000       0.00000000      -0.00773500      -0.00000000 
N      22.57542000      10.15311000       6.00000000      -0.00198200      -0.00373900      -0.00000000 
N      23.82986000      12.32586000       6.00000000       0.00224700       0.00358600      -0.00000000 
N      25.09700000      14.48976000       6.00000000       0.00669800       0.00386700      -0.00000000 
Au      12.55000000       7.24575000       6.00000000      -0.00000000      -0.00000000      -0.00000000 
