50
Lattice="12.55 0.0 0.0 6.275 10.868619 0.0 0.0 0.0 12.0" Properties=species:S:1:pos:R:3:forces:R:3 pbe340=-15.517234322863516 energy=-422.24545319 stress="-0.012751902464909568 0.0 -0.0 0.0 -0.012751902464909568 -0.0 -0.0 -0.0 0.02569389009024791" magmom=2.0013238 pbc="T T T"
B       1.26257000       0.72895000       6.00000000       0.00473400       0.00273300      -0.00000000 
B       2.51000000       2.88956000       6.00000000       0.00000000      -0.00546600      -0.00000000 
B       3.71987000       5.06337000       6.00000000      -0.01145500      -0.00029600      -0.00000000 
B       4.97968000       7.26902000       6.00000000       0.00127200      -0.00073500       0.00000000 
B       6.25993000       9.46288000       6.00000000      -0.00547100       0.01006800      -0.00000000 
B       3.75743000       0.72895000       6.00000000      -0.00473400       0.00273300      -0.00000000 
B       5.00292000       2.88844000       6.00000000      -0.00095500      -0.00055100      -0.00000000 
B       6.13170000       5.07898000       6.00000000       0.00538300       0.00627400      -0.00000000 
B       7.45233000       7.36637000       6.00000000      -0.00274200      -0.00779900      -0.00000000 
B       8.78500000       9.43919000       6.00000000       0.00000000       0.00110300      -0.00000000 
B       6.24494000       0.68982000       6.00000000      -0.00598400      -0.00977200      -0.00000000 
B       7.46438000       2.77072000       6.00000000       0.00812500       0.00152500      -0.00000000 
B      10.11767000       7.36637000       6.00000000       0.00274200      -0.00779900       0.00000000 
B      11.31007000       9.46288000       6.00000000       0.00547100       0.01006800      -0.00000000 
B       8.78500000       0.67802000       6.00000000       0.00000000       0.00146900       0.00000000 
B      10.10562000       2.77072000       6.00000000      -0.00812500       0.00152500      -0.00000000 
B      11.43830000       5.07898000       6.00000000      -0.00538300       0.00627400       0.00000000 
B      12.59032000       7.26902000       6.00000000      -0.00127200      -0.00073500      -0.00000000 
B      13.80834000       9.41754000       6.00000000      -0.01067500       0.00616300      -0.00000000 
B      11.32506000       0.68982000       6.00000000       0.00598400      -0.00977200      -0.00000000 
B      12.56708000       2.88844000       6.00000000       0.00095500      -0.00055100      -0.00000000 
B      13.85013000       5.06337000       6.00000000       0.01145500      -0.00029600      -0.00000000 
B      15.06000000       7.24961000       6.00000000      -0.00000000      -0.01232600      -0.00000000 
B      16.31166000       9.41754000       6.00000000       0.01067500       0.00616300      -0.00000000 
N       2.51000000       1.44915000       6.00000000       0.00000000       0.00000000      -0.00000000 
N       3.75346000       3.61585000       6.00000000      -0.00041200       0.00380800      -0.00000000 
N       4.91549000       5.81616000       6.00000000      -0.00021100      -0.00179800      -0.00000000 
N       6.20580000       8.05105000       6.00000000       0.00145200       0.00108200      -0.00000000 
N       7.53031000      10.15755000       6.00000000      -0.00350300      -0.00154700      -0.00000000 
N       5.00815000       1.44267000       6.00000000       0.00309200      -0.00226000      -0.00000000 
N       6.25577000       3.61177000       6.00000000       0.00784400       0.00452900      -0.00000000 
N       7.16446000       6.00764000       6.00000000      -0.00124100       0.00071700       0.00000000 
N       8.78500000       7.99253000       6.00000000       0.00000000      -0.00905700       0.00000000 
N      10.03969000      10.15755000       6.00000000       0.00350300      -0.00154700      -0.00000000 
N       7.49468000       1.34886000       6.00000000      -0.00166300       0.00071700       0.00000000 
N       8.78500000       3.20078000       6.00000000       0.00000000      -0.00143400       0.00000000 
N      10.40554000       6.00764000       6.00000000       0.00124100       0.00071700      -0.00000000 
N      11.36420000       8.05105000       6.00000000      -0.00145200       0.00108200       0.00000000 
N      12.55623000      10.14045000       6.00000000       0.01359700      -0.00785000      -0.00000000 
N      10.07532000       1.34886000       6.00000000       0.00166300       0.00071700      -0.00000000 
N      11.31423000       3.61177000       6.00000000      -0.00784400       0.00452900       0.00000000 
N      12.65451000       5.81616000       6.00000000       0.00021100      -0.00179800      -0.00000000 
N      13.82551000       7.98216000       6.00000000      -0.00105600      -0.00061000      -0.00000000 
N      15.06000000      10.12036000       6.00000000       0.00000000       0.00122000      -0.00000000 
N      12.56185000       1.44267000       6.00000000      -0.00309200      -0.00226000      -0.00000000 
N      13.81654000       3.61585000       6.00000000       0.00041200       0.00380800      -0.00000000 
N      15.06000000       5.80379000       6.00000000      -0.00000000       0.01570000      -0.00000000 
N      16.29449000       7.98216000       6.00000000       0.00105600      -0.00061000      -0.00000000 
N      17.56377000      10.14045000       6.00000000      -0.01359700      -0.00785000      -0.00000000 
Au       8.78500000       5.07202000       6.00000000       0.00000000       0.00000000      -0.00000000 
