50
Lattice="12.55 0.0 0.0 6.275 10.868619 0.0 0.0 0.0 12.0" Properties=species:S:1:pos:R:3:forces:R:3 pbe340=-16.063481929901595 energy=-437.10960769 stress="0.022163873532412993 -0.0 -0.0 -0.0 0.022163879773922115 -0.0 -0.0 -0.0 0.025896252299127294" magmom=1.0000015 pbc="T T T"
B       1.25399000       0.72399000       6.00000000       0.00098500       0.00056900       0.00000000 
B       2.51000000       2.89947000       6.00000000       0.00000000      -0.00113800       0.00000000 
B       3.77070000       5.07290000       6.00000000      -0.01160300      -0.00282500       0.00000000 
B       5.02218000       7.24449000       6.00000000      -0.00892500       0.00515300       0.00000000 
B       6.27709000       9.41409000       6.00000000      -0.00335500       0.01146100       0.00000000 
B       3.76601000       0.72399000       6.00000000      -0.00098500       0.00056900       0.00000000 
B       5.02141000       2.89911000       6.00000000      -0.00370000      -0.00213600       0.00000000 
B       6.28923000       5.06879000       6.00000000       0.00047400       0.00412000       0.00000000 
B       7.53991000       7.23504000       6.00000000      -0.00333100      -0.00247000       0.00000000 
B       8.78500000       9.41785000       6.00000000       0.00000000       0.00427200       0.00000000 
B       6.27862000       0.72907000       6.00000000      -0.00824800      -0.00863600       0.00000000 
B       7.53432000       2.91223000       6.00000000       0.00380500      -0.00165000       0.00000000 
B      10.03009000       7.23504000       6.00000000       0.00333100      -0.00247000       0.00000000 
B      11.29291000       9.41409000       6.00000000       0.00335500       0.01146100       0.00000000 
B       8.78500000       0.72709000       6.00000000      -0.00000000      -0.01030500       0.00000000 
B      10.03568000       2.91223000       6.00000000      -0.00380500      -0.00165000       0.00000000 
B      11.28077000       5.06879000       6.00000000      -0.00047400       0.00412000       0.00000000 
B      12.54782000       7.24449000       6.00000000       0.00892500       0.00515300       0.00000000 
B      13.80509000       9.41942000       6.00000000       0.00052800      -0.00030500       0.00000000 
B      11.29138000       0.72907000       6.00000000       0.00824800      -0.00863600       0.00000000 
B      12.54859000       2.89911000       6.00000000       0.00370000      -0.00213600       0.00000000 
B      13.79930000       5.07290000       6.00000000       0.01160300      -0.00282500       0.00000000 
B      15.06000000       7.24586000       6.00000000       0.00000000       0.00060900       0.00000000 
B      16.31491000       9.41942000       6.00000000      -0.00052800      -0.00030500       0.00000000 
C       8.78500000       5.07202000       6.00000000       0.00000000      -0.00000000       0.00000000 
N       2.51000000       1.44915000       6.00000000       0.00000000      -0.00000000       0.00000000 
N       3.76585000       3.62417000       6.00000000       0.00655200      -0.00063900       0.00000000 
N       5.03324000       5.79694000       6.00000000      -0.00384700       0.00157700       0.00000000 
N       6.28132000       7.95868000       6.00000000      -0.00328900       0.00254300      -0.00000000 
N       7.52930000      10.14266000       6.00000000       0.00382900      -0.00535500       0.00000000 
N       5.02155000       1.44923000       6.00000000       0.00272300       0.00599300       0.00000000 
N       6.27477000       3.62274000       6.00000000       0.00143500       0.00082900       0.00000000 
N       7.56466000       5.77659000       6.00000000      -0.00436300       0.00251900      -0.00000000 
N       8.78500000       7.97059000       6.00000000       0.00000000      -0.00165700       0.00000000 
N      10.04070000      10.14266000       6.00000000      -0.00382900      -0.00535500       0.00000000 
N       7.53692000       1.46044000       6.00000000      -0.00055800      -0.00412000       0.00000000 
N       8.78500000       3.66289000       6.00000000       0.00000000      -0.00503700      -0.00000000 
N      10.00534000       5.77659000       6.00000000       0.00436300       0.00251900       0.00000000 
N      11.28868000       7.95868000       6.00000000       0.00328900       0.00254300       0.00000000 
N      12.54980000      10.14416000       6.00000000      -0.00126300       0.00072900       0.00000000 
N      10.03308000       1.46044000       6.00000000       0.00055800      -0.00412000       0.00000000 
N      11.29523000       3.62274000       6.00000000      -0.00143500       0.00082900       0.00000000 
N      12.53676000       5.79694000       6.00000000       0.00384700       0.00157700       0.00000000 
N      13.80377000       7.96961000       6.00000000      -0.00276100      -0.00159400       0.00000000 
N      15.06000000      10.14547000       6.00000000       0.00000000       0.00318800       0.00000000 
N      12.54845000       1.44923000       6.00000000      -0.00272300       0.00599300      -0.00000000 
N      13.80415000       3.62417000       6.00000000      -0.00655200      -0.00063900      -0.00000000 
N      15.06000000       5.79637000       6.00000000       0.00000000      -0.00145900       0.00000000 
N      16.31623000       7.96961000       6.00000000       0.00276100      -0.00159400       0.00000000 
N      17.57020000      10.14416000       6.00000000       0.00126300       0.00072900       0.00000000 
