72
Lattice="15.06 0.0 0.0 7.53 13.042343 0.0 0.0 0.0 12.0" Properties=species:S:1:pos:R:3:forces:R:3 pbe340=-23.15841948314184 energy=-630.17269227 stress="0.021092643321137645 0.0 -0.0 0.0 0.02109264956264677 -0.0 -0.0 -0.0 0.025756049279632584" magmom=1.0000015 pbc="T T T"
B       1.25500000       0.72457000       6.00000000      -0.00000000      -0.00000000       0.00000000 
B       2.51112000       2.89954000       6.00000000      -0.00080200      -0.00136300       0.00000000 
B       3.77365000       5.07277000       6.00000000      -0.01313900      -0.00231800       0.00000000 
B       5.02347000       7.24375000       6.00000000      -0.00911500       0.00526200       0.00000000 
B       6.27868000       9.41160000       6.00000000      -0.00456200       0.01253800       0.00000000 
B       7.52948000      11.59160000       6.00000000       0.00077900       0.00137600       0.00000000 
B       3.76664000       0.72492000       6.00000000      -0.00158100      -0.00001300       0.00000000 
B       5.02210000       2.89951000       6.00000000      -0.00045900      -0.00026500       0.00000000 
B       6.29054000       5.06865000       6.00000000      -0.00143700       0.00401200       0.00000000 
B       7.54069000       7.23397000       6.00000000      -0.00419300      -0.00076100       0.00000000 
B       8.78500000       9.41705000       6.00000000      -0.00000000       0.00053000       0.00000000 
B      10.04052000      11.59160000       6.00000000      -0.00077900       0.00137600       0.00000000 
B       6.27997000       0.73169000       6.00000000      -0.00857700      -0.01021900       0.00000000 
B       7.53486000       2.91344000       6.00000000       0.00275600      -0.00325100       0.00000000 
B      10.02931000       7.23397000       6.00000000       0.00419300      -0.00076100       0.00000000 
B      11.29132000       9.41160000       6.00000000       0.00456200       0.01253800       0.00000000 
B      12.55066000      11.59281000       6.00000000      -0.00043900       0.00025300       0.00000000 
B       8.78500000       0.72858000       6.00000000      -0.00000000      -0.01052500       0.00000000 
B      10.03514000       2.91344000       6.00000000      -0.00275600      -0.00325100       0.00000000 
B      11.27946000       5.06865000       6.00000000       0.00143700       0.00401200       0.00000000 
B      12.54653000       7.24375000       6.00000000       0.00911500       0.00526200       0.00000000 
B      13.80409000       9.41829000       6.00000000       0.00085700       0.00041500       0.00000000 
B      15.06057000      11.59457000       6.00000000       0.00006900      -0.00094900       0.00000000 
B      11.29003000       0.73169000       6.00000000       0.00857700      -0.01021900       0.00000000 
B      12.54790000       2.89951000       6.00000000       0.00045900      -0.00026500       0.00000000 
B      13.79635000       5.07277000       6.00000000       0.01313900      -0.00231800       0.00000000 
B      15.05852000       7.24555000       6.00000000       0.00078800       0.00053500       0.00000000 
B      16.31500000       9.41947000       6.00000000      -0.00000000      -0.00000000       0.00000000 
B      17.56943000      11.59457000       6.00000000      -0.00006900      -0.00094900       0.00000000 
B      13.80336000       0.72492000       6.00000000       0.00158100      -0.00001300       0.00000000 
B      15.05888000       2.89954000       6.00000000       0.00080200      -0.00136300       0.00000000 
B      16.31500000       5.07279000       6.00000000      -0.00000000      -0.00050700       0.00000000 
B      17.57148000       7.24555000       6.00000000      -0.00078800       0.00053500       0.00000000 
B      18.82591000       9.41829000       6.00000000      -0.00085700       0.00041500       0.00000000 
B      20.07934000      11.59281000       6.00000000       0.00043900       0.00025300       0.00000000 
C       8.78500000       5.07202000       6.00000000      -0.00000000      -0.00000000       0.00000000 
N       2.51076000       1.44959000       6.00000000       0.00105000       0.00060600       0.00000000 
N       3.76685000       3.62410000       6.00000000       0.00732200       0.00010800       0.00000000 
N       5.03544000       5.79657000       6.00000000      -0.00667500       0.00296800       0.00000000 
N       6.28275000       7.95696000       6.00000000      -0.00590700       0.00429600       0.00000000 
N       7.52986000      10.14182000       6.00000000       0.00356800      -0.00639500       0.00000000 
N       8.78500000      12.31688000       6.00000000      -0.00000000      -0.00121200       0.00000000 
N       5.02199000       1.45014000       6.00000000       0.00375400       0.00628700       0.00000000 
N       6.27532000       3.62306000       6.00000000      -0.00196200      -0.00113300       0.00000000 
N       7.56548000       5.77611000       6.00000000      -0.00148100       0.00085500       0.00000000 
N       8.78500000       7.96995000       6.00000000      -0.00000000       0.00226600       0.00000000 
N      10.04014000      10.14182000       6.00000000      -0.00356800      -0.00639500       0.00000000 
N      11.29589000      12.31725000       6.00000000      -0.00101800       0.00058800       0.00000000 
N       7.53770000       1.46254000       6.00000000      -0.00076700      -0.00726400       0.00000000 
N       8.78500000       3.66385000       6.00000000      -0.00000000      -0.00171000       0.00000000 
N      10.00452000       5.77611000       6.00000000       0.00148100       0.00085500       0.00000000 
N      11.28725000       7.95696000       6.00000000       0.00590700       0.00429600       0.00000000 
N      12.54743000      10.14028000       6.00000000      -0.00092000       0.00049000       0.00000000 
N      13.80698000      12.32187000       6.00000000      -0.00088400       0.00055200       0.00000000 
N      10.03230000       1.46254000       6.00000000       0.00076700      -0.00726400       0.00000000 
N      11.29468000       3.62306000       6.00000000       0.00196200      -0.00113300       0.00000000 
N      12.53456000       5.79657000       6.00000000       0.00667500       0.00296800       0.00000000 
N      13.80245000       7.96885000       6.00000000      -0.00440800      -0.00254500       0.00000000 
N      15.05946000      10.14436000       6.00000000      -0.00116900       0.00067500       0.00000000 
N      16.31500000      12.32071000       6.00000000      -0.00000000       0.00509000       0.00000000 
N      12.54801000       1.45014000       6.00000000      -0.00375400       0.00628700       0.00000000 
N      13.80315000       3.62410000       6.00000000      -0.00732200       0.00010800       0.00000000 
N      15.05546000       5.79626000       6.00000000      -0.00003600      -0.00104200       0.00000000 
N      16.31500000       7.96969000       6.00000000      -0.00000000      -0.00135000       0.00000000 
N      17.57054000      10.14436000       6.00000000       0.00116900       0.00067500       0.00000000 
N      18.82302000      12.32187000       6.00000000       0.00088400       0.00055200       0.00000000 
N      15.05924000       1.44959000       6.00000000      -0.00105000       0.00060600       0.00000000 
N      16.31500000       3.62390000       6.00000000      -0.00000000      -0.00117600       0.00000000 
N      17.57454000       5.79626000       6.00000000       0.00003600      -0.00104200       0.00000000 
N      18.82755000       7.96885000       6.00000000       0.00440800      -0.00254500       0.00000000 
N      20.08257000      10.14028000       6.00000000       0.00092000       0.00049000       0.00000000 
N      21.33411000      12.31725000       6.00000000       0.00101800       0.00058800       0.00000000 
